#Arrangement of polymer tethered to a walln
     320 atoms
     319 bonds
     319 angles

       2 atom types
       1 bond types
       2 angle types

-128.000000 128.000000 xlo xhi
-128.000000 128.000000 ylo yhi
-128.000000 128.000000 zlo zhi

Masses

 1 1
  2 1

Atoms

       1        1        1 -121.600000 0.000000 66.200000
       2        1        1 -120.650000 0.000000 66.200000
       3        1        1 -119.700000 0.000000 66.200000
       4        1        1 -118.750000 0.000000 66.200000
       5        1        1 -117.800000 0.000000 66.200000
       6        1        1 -116.850000 0.000000 66.200000
       7        1        1 -115.900000 0.000000 66.200000
       8        1        1 -114.950000 0.000000 66.200000
       9        1        1 -114.000000 0.000000 66.200000
      10        1        1 -113.050000 0.000000 66.200000
      11        1        1 -112.100000 0.000000 66.200000
      12        1        1 -111.150000 0.000000 66.200000
      13        1        1 -110.200000 0.000000 66.200000
      14        1        1 -109.250000 0.000000 66.200000
      15        1        1 -108.300000 0.000000 66.200000
      16        1        1 -107.350000 0.000000 66.200000
      17        1        1 -106.400000 0.000000 66.200000
      18        1        1 -105.450000 0.000000 66.200000
      19        1        1 -104.500000 0.000000 66.200000
      20        1        1 -103.550000 0.000000 66.200000
      21        1        1 -102.600000 0.000000 66.200000
      22        1        1 -101.650000 0.000000 66.200000
      23        1        1 -100.700000 0.000000 66.200000
      24        1        1 -99.750000 0.000000 66.200000
      25        1        1 -98.800000 0.000000 66.200000
      26        1        1 -97.850000 0.000000 66.200000
      27        1        1 -96.900000 0.000000 66.200000
      28        1        1 -95.950000 0.000000 66.200000
      29        1        1 -95.000000 0.000000 66.200000
      30        1        1 -94.050000 0.000000 66.200000
      31        1        1 -93.100000 0.000000 66.200000
      32        1        1 -92.150000 0.000000 66.200000
      33        1        1 -91.200000 0.000000 66.200000
      34        1        1 -90.250000 0.000000 66.200000
      35        1        1 -89.300000 0.000000 66.200000
      36        1        1 -88.350000 0.000000 66.200000
      37        1        1 -87.400000 0.000000 66.200000
      38        1        1 -86.450000 0.000000 66.200000
      39        1        1 -85.500000 0.000000 66.200000
      40        1        1 -84.550000 0.000000 66.200000
      41        1        1 -83.600000 0.000000 66.200000
      42        1        1 -82.650000 0.000000 66.200000
      43        1        1 -81.700000 0.000000 66.200000
      44        1        1 -80.750000 0.000000 66.200000
      45        1        1 -79.800000 0.000000 66.200000
      46        1        1 -78.850000 0.000000 66.200000
      47        1        1 -77.900000 0.000000 66.200000
      48        1        1 -76.950000 0.000000 66.200000
      49        1        1 -76.000000 0.000000 66.200000
      50        1        1 -75.050000 0.000000 66.200000
      51        1        1 -74.100000 0.000000 66.200000
      52        1        1 -73.150000 0.000000 66.200000
      53        1        1 -72.200000 0.000000 66.200000
      54        1        1 -71.250000 0.000000 66.200000
      55        1        1 -70.300000 0.000000 66.200000
      56        1        1 -69.350000 0.000000 66.200000
      57        1        1 -68.400000 0.000000 66.200000
      58        1        1 -67.450000 0.000000 66.200000
      59        1        1 -66.500000 0.000000 66.200000
      60        1        1 -65.550000 0.000000 66.200000
      61        1        1 -64.600000 0.000000 66.200000
      62        1        1 -63.650000 0.000000 66.200000
      63        1        1 -62.700000 0.000000 66.200000
      64        1        1 -61.750000 0.000000 66.200000
      65        1        1 -60.800000 0.000000 66.200000
      66        1        1 -59.850000 0.000000 66.200000
      67        1        1 -58.900000 0.000000 66.200000
      68        1        1 -57.950000 0.000000 66.200000
      69        1        1 -57.000000 0.000000 66.200000
      70        1        1 -56.050000 0.000000 66.200000
      71        1        1 -55.100000 0.000000 66.200000
      72        1        1 -54.150000 0.000000 66.200000
      73        1        1 -53.200000 0.000000 66.200000
      74        1        1 -52.250000 0.000000 66.200000
      75        1        1 -51.300000 0.000000 66.200000
      76        1        1 -50.350000 0.000000 66.200000
      77        1        1 -49.400000 0.000000 66.200000
      78        1        1 -48.450000 0.000000 66.200000
      79        1        1 -47.500000 0.000000 66.200000
      80        1        1 -46.550000 0.000000 66.200000
      81        1        1 -45.600000 0.000000 66.200000
      82        1        1 -44.650000 0.000000 66.200000
      83        1        1 -43.700000 0.000000 66.200000
      84        1        1 -42.750000 0.000000 66.200000
      85        1        1 -41.800000 0.000000 66.200000
      86        1        1 -40.850000 0.000000 66.200000
      87        1        1 -39.900000 0.000000 66.200000
      88        1        1 -38.950000 0.000000 66.200000
      89        1        1 -38.000000 0.000000 66.200000
      90        1        1 -37.050000 0.000000 66.200000
      91        1        1 -36.100000 0.000000 66.200000
      92        1        1 -35.150000 0.000000 66.200000
      93        1        1 -34.200000 0.000000 66.200000
      94        1        1 -33.250000 0.000000 66.200000
      95        1        1 -32.300000 0.000000 66.200000
      96        1        1 -31.350000 0.000000 66.200000
      97        1        1 -30.400000 0.000000 66.200000
      98        1        1 -29.450000 0.000000 66.200000
      99        1        1 -28.500000 0.000000 66.200000
     100        1        1 -27.550000 0.000000 66.200000
     101        1        1 -26.600000 0.000000 66.200000
     102        1        1 -25.650000 0.000000 66.200000
     103        1        1 -24.700000 0.000000 66.200000
     104        1        1 -23.750000 0.000000 66.200000
     105        1        1 -22.800000 0.000000 66.200000
     106        1        1 -21.850000 0.000000 66.200000
     107        1        1 -20.900000 0.000000 66.200000
     108        1        1 -19.950000 0.000000 66.200000
     109        1        1 -19.000000 0.000000 66.200000
     110        1        1 -18.050000 0.000000 66.200000
     111        1        1 -17.100000 0.000000 66.200000
     112        1        1 -16.150000 0.000000 66.200000
     113        1        1 -15.200000 0.000000 66.200000
     114        1        1 -14.250000 0.000000 66.200000
     115        1        1 -13.300000 0.000000 66.200000
     116        1        1 -12.350000 0.000000 66.200000
     117        1        1 -11.400000 0.000000 66.200000
     118        1        1 -10.450000 0.000000 66.200000
     119        1        1 -9.500000 0.000000 66.200000
     120        1        1 -8.550000 0.000000 66.200000
     121        1        1 -7.600000 0.000000 66.200000
     122        1        1 -6.650000 0.000000 66.200000
     123        1        1 -5.700000 0.000000 66.200000
     124        1        1 -4.750000 0.000000 66.200000
     125        1        1 -3.800000 0.000000 66.200000
     126        1        1 -2.850000 0.000000 66.200000
     127        1        1 -1.900000 0.000000 66.200000
     128        1        1 -0.950000 0.000000 66.200000
     129        1        1 0.000000 0.000000 66.200000
     130        1        1 0.950000 0.000000 66.200000
     131        1        1 1.900000 0.000000 66.200000
     132        1        1 2.850000 0.000000 66.200000
     133        1        1 3.800000 0.000000 66.200000
     134        1        1 4.750000 0.000000 66.200000
     135        1        1 5.700000 0.000000 66.200000
     136        1        1 6.650000 0.000000 66.200000
     137        1        1 7.600000 0.000000 66.200000
     138        1        1 8.550000 0.000000 66.200000
     139        1        1 9.500000 0.000000 66.200000
     140        1        1 10.450000 0.000000 66.200000
     141        1        1 11.400000 0.000000 66.200000
     142        1        1 12.350000 0.000000 66.200000
     143        1        1 13.300000 0.000000 66.200000
     144        1        1 14.250000 0.000000 66.200000
     145        1        1 15.200000 0.000000 66.200000
     146        1        1 16.150000 0.000000 66.200000
     147        1        1 17.100000 0.000000 66.200000
     148        1        1 18.050000 0.000000 66.200000
     149        1        1 19.000000 0.000000 66.200000
     150        1        1 19.950000 0.000000 66.200000
     151        1        1 20.900000 0.000000 66.200000
     152        1        1 21.850000 0.000000 66.200000
     153        1        1 22.800000 0.000000 66.200000
     154        1        1 23.750000 0.000000 66.200000
     155        1        1 24.700000 0.000000 66.200000
     156        1        1 25.650000 0.000000 66.200000
     157        1        1 26.600000 0.000000 66.200000
     158        1        1 27.550000 0.000000 66.200000
     159        1        1 28.500000 0.000000 66.200000
     160        1        1 29.450000 0.000000 66.200000
     161        1        1 30.400000 0.000000 66.200000
     162        1        1 31.350000 0.000000 66.200000
     163        1        1 32.300000 0.000000 66.200000
     164        1        1 33.250000 0.000000 66.200000
     165        1        1 34.200000 0.000000 66.200000
     166        1        1 35.150000 0.000000 66.200000
     167        1        1 36.100000 0.000000 66.200000
     168        1        1 37.050000 0.000000 66.200000
     169        1        1 38.000000 0.000000 66.200000
     170        1        1 38.950000 0.000000 66.200000
     171        1        1 39.900000 0.000000 66.200000
     172        1        1 40.850000 0.000000 66.200000
     173        1        1 41.800000 0.000000 66.200000
     174        1        1 42.750000 0.000000 66.200000
     175        1        1 43.700000 0.000000 66.200000
     176        1        1 44.650000 0.000000 66.200000
     177        1        1 45.600000 0.000000 66.200000
     178        1        1 46.550000 0.000000 66.200000
     179        1        1 47.500000 0.000000 66.200000
     180        1        1 48.450000 0.000000 66.200000
     181        1        1 49.400000 0.000000 66.200000
     182        1        1 50.350000 0.000000 66.200000
     183        1        1 51.300000 0.000000 66.200000
     184        1        1 52.250000 0.000000 66.200000
     185        1        1 53.200000 0.000000 66.200000
     186        1        1 54.150000 0.000000 66.200000
     187        1        1 55.100000 0.000000 66.200000
     188        1        1 56.050000 0.000000 66.200000
     189        1        1 57.000000 0.000000 66.200000
     190        1        1 57.950000 0.000000 66.200000
     191        1        1 58.900000 0.000000 66.200000
     192        1        1 59.850000 0.000000 66.200000
     193        1        1 60.800000 0.000000 66.200000
     194        1        1 61.750000 0.000000 66.200000
     195        1        1 62.700000 0.000000 66.200000
     196        1        1 63.650000 0.000000 66.200000
     197        1        1 64.600000 0.000000 66.200000
     198        1        1 65.550000 0.000000 66.200000
     199        1        1 66.500000 0.000000 66.200000
     200        1        1 67.450000 0.000000 66.200000
     201        1        1 68.400000 0.000000 66.200000
     202        1        1 69.350000 0.000000 66.200000
     203        1        1 70.300000 0.000000 66.200000
     204        1        1 71.250000 0.000000 66.200000
     205        1        1 72.200000 0.000000 66.200000
     206        1        1 73.150000 0.000000 66.200000
     207        1        1 74.100000 0.000000 66.200000
     208        1        1 75.050000 0.000000 66.200000
     209        1        1 76.000000 0.000000 66.200000
     210        1        1 76.950000 0.000000 66.200000
     211        1        1 77.900000 0.000000 66.200000
     212        1        1 78.850000 0.000000 66.200000
     213        1        1 79.800000 0.000000 66.200000
     214        1        1 80.750000 0.000000 66.200000
     215        1        1 81.700000 0.000000 66.200000
     216        1        1 82.650000 0.000000 66.200000
     217        1        1 83.600000 0.000000 66.200000
     218        1        1 84.550000 0.000000 66.200000
     219        1        1 85.500000 0.000000 66.200000
     220        1        1 86.450000 0.000000 66.200000
     221        1        1 87.400000 0.000000 66.200000
     222        1        1 88.350000 0.000000 66.200000
     223        1        1 89.300000 0.000000 66.200000
     224        1        1 90.250000 0.000000 66.200000
     225        1        1 91.200000 0.000000 66.200000
     226        1        1 92.150000 0.000000 66.200000
     227        1        1 93.100000 0.000000 66.200000
     228        1        1 94.050000 0.000000 66.200000
     229        1        1 95.000000 0.000000 66.200000
     230        1        1 95.950000 0.000000 66.200000
     231        1        1 96.900000 0.000000 66.200000
     232        1        1 97.850000 0.000000 66.200000
     233        1        1 98.800000 0.000000 66.200000
     234        1        1 99.750000 0.000000 66.200000
     235        1        1 100.700000 0.000000 66.200000
     236        1        1 101.650000 0.000000 66.200000
     237        1        1 102.600000 0.000000 66.200000
     238        1        1 103.550000 0.000000 66.200000
     239        1        1 104.500000 0.000000 66.200000
     240        1        1 105.450000 0.000000 66.200000
     241        1        1 106.400000 0.000000 66.200000
     242        1        1 107.350000 0.000000 66.200000
     243        1        1 108.300000 0.000000 66.200000
     244        1        1 109.250000 0.000000 66.200000
     245        1        1 110.200000 0.000000 66.200000
     246        1        1 111.150000 0.000000 66.200000
     247        1        1 112.100000 0.000000 66.200000
     248        1        1 113.050000 0.000000 66.200000
     249        1        1 114.000000 0.000000 66.200000
     250        1        1 114.950000 0.000000 66.200000
     251        1        1 115.900000 0.000000 66.200000
     252        1        1 116.850000 0.000000 66.200000
     253        1        1 117.800000 0.000000 66.200000
     254        1        1 118.750000 0.000000 66.200000
     255        1        1 119.700000 0.000000 66.200000
     256        1        1 120.650000 0.000000 66.200000
     257        1        2 0.000000 0.000000 67.150000
     258        1        2 0.000000 0.000000 68.100000
     259        1        2 0.000000 0.000000 69.050000
     260        1        2 0.000000 0.000000 70.000000
     261        1        2 0.000000 0.000000 70.950000
     262        1        2 0.000000 0.000000 71.900000
     263        1        2 0.000000 0.000000 72.850000
     264        1        2 0.000000 0.000000 73.800000
     265        1        2 0.000000 0.000000 74.750000
     266        1        2 0.000000 0.000000 75.700000
     267        1        2 0.000000 0.000000 76.650000
     268        1        2 0.000000 0.000000 77.600000
     269        1        2 0.000000 0.000000 78.550000
     270        1        2 0.000000 0.000000 79.500000
     271        1        2 0.000000 0.000000 80.450000
     272        1        2 0.000000 0.000000 81.400000
     273        1        2 0.000000 0.000000 82.350000
     274        1        2 0.000000 0.000000 83.300000
     275        1        2 0.000000 0.000000 84.250000
     276        1        2 0.000000 0.000000 85.200000
     277        1        2 0.000000 0.000000 86.150000
     278        1        2 0.000000 0.000000 87.100000
     279        1        2 0.000000 0.000000 88.050000
     280        1        2 0.000000 0.000000 89.000000
     281        1        2 0.000000 0.000000 89.950000
     282        1        2 0.000000 0.000000 90.900000
     283        1        2 0.000000 0.000000 91.850000
     284        1        2 0.000000 0.000000 92.800000
     285        1        2 0.000000 0.000000 93.750000
     286        1        2 0.000000 0.000000 94.700000
     287        1        2 0.000000 0.000000 95.650000
     288        1        2 0.000000 0.000000 96.600000
     289        1        2 0.000000 0.000000 97.550000
     290        1        2 0.000000 0.000000 98.500000
     291        1        2 0.000000 0.000000 99.450000
     292        1        2 0.000000 0.000000 100.400000
     293        1        2 0.000000 0.000000 101.350000
     294        1        2 0.000000 0.000000 102.300000
     295        1        2 0.000000 0.000000 103.250000
     296        1        2 0.000000 0.000000 104.200000
     297        1        2 0.000000 0.000000 105.150000
     298        1        2 0.000000 0.000000 106.100000
     299        1        2 0.000000 0.000000 107.050000
     300        1        2 0.000000 0.000000 108.000000
     301        1        2 0.000000 0.000000 108.950000
     302        1        2 0.000000 0.000000 109.900000
     303        1        2 0.000000 0.000000 110.850000
     304        1        2 0.000000 0.000000 111.800000
     305        1        2 0.000000 0.000000 112.750000
     306        1        2 0.000000 0.000000 113.700000
     307        1        2 0.000000 0.000000 114.650000
     308        1        2 0.000000 0.000000 115.600000
     309        1        2 0.000000 0.000000 116.550000
     310        1        2 0.000000 0.000000 117.500000
     311        1        2 0.000000 0.000000 118.450000
     312        1        2 0.000000 0.000000 119.400000
     313        1        2 0.000000 0.000000 120.350000
     314        1        2 0.000000 0.000000 121.300000
     315        1        2 0.000000 0.000000 122.250000
     316        1        2 0.000000 0.000000 123.200000
     317        1        2 0.000000 0.000000 124.150000
     318        1        2 0.000000 0.000000 125.100000
     319        1        2 0.000000 0.000000 126.050000
     320        1        2 0.000000 0.000000 127.000000

 Bonds

       1        1        1        2
       2        1        2        3
       3        1        3        4
       4        1        4        5
       5        1        5        6
       6        1        6        7
       7        1        7        8
       8        1        8        9
       9        1        9       10
      10        1       10       11
      11        1       11       12
      12        1       12       13
      13        1       13       14
      14        1       14       15
      15        1       15       16
      16        1       16       17
      17        1       17       18
      18        1       18       19
      19        1       19       20
      20        1       20       21
      21        1       21       22
      22        1       22       23
      23        1       23       24
      24        1       24       25
      25        1       25       26
      26        1       26       27
      27        1       27       28
      28        1       28       29
      29        1       29       30
      30        1       30       31
      31        1       31       32
      32        1       32       33
      33        1       33       34
      34        1       34       35
      35        1       35       36
      36        1       36       37
      37        1       37       38
      38        1       38       39
      39        1       39       40
      40        1       40       41
      41        1       41       42
      42        1       42       43
      43        1       43       44
      44        1       44       45
      45        1       45       46
      46        1       46       47
      47        1       47       48
      48        1       48       49
      49        1       49       50
      50        1       50       51
      51        1       51       52
      52        1       52       53
      53        1       53       54
      54        1       54       55
      55        1       55       56
      56        1       56       57
      57        1       57       58
      58        1       58       59
      59        1       59       60
      60        1       60       61
      61        1       61       62
      62        1       62       63
      63        1       63       64
      64        1       64       65
      65        1       65       66
      66        1       66       67
      67        1       67       68
      68        1       68       69
      69        1       69       70
      70        1       70       71
      71        1       71       72
      72        1       72       73
      73        1       73       74
      74        1       74       75
      75        1       75       76
      76        1       76       77
      77        1       77       78
      78        1       78       79
      79        1       79       80
      80        1       80       81
      81        1       81       82
      82        1       82       83
      83        1       83       84
      84        1       84       85
      85        1       85       86
      86        1       86       87
      87        1       87       88
      88        1       88       89
      89        1       89       90
      90        1       90       91
      91        1       91       92
      92        1       92       93
      93        1       93       94
      94        1       94       95
      95        1       95       96
      96        1       96       97
      97        1       97       98
      98        1       98       99
      99        1       99      100
     100        1      100      101
     101        1      101      102
     102        1      102      103
     103        1      103      104
     104        1      104      105
     105        1      105      106
     106        1      106      107
     107        1      107      108
     108        1      108      109
     109        1      109      110
     110        1      110      111
     111        1      111      112
     112        1      112      113
     113        1      113      114
     114        1      114      115
     115        1      115      116
     116        1      116      117
     117        1      117      118
     118        1      118      119
     119        1      119      120
     120        1      120      121
     121        1      121      122
     122        1      122      123
     123        1      123      124
     124        1      124      125
     125        1      125      126
     126        1      126      127
     127        1      127      128
     128        1      128      129
     129        1      129      130
     130        1      130      131
     131        1      131      132
     132        1      132      133
     133        1      133      134
     134        1      134      135
     135        1      135      136
     136        1      136      137
     137        1      137      138
     138        1      138      139
     139        1      139      140
     140        1      140      141
     141        1      141      142
     142        1      142      143
     143        1      143      144
     144        1      144      145
     145        1      145      146
     146        1      146      147
     147        1      147      148
     148        1      148      149
     149        1      149      150
     150        1      150      151
     151        1      151      152
     152        1      152      153
     153        1      153      154
     154        1      154      155
     155        1      155      156
     156        1      156      157
     157        1      157      158
     158        1      158      159
     159        1      159      160
     160        1      160      161
     161        1      161      162
     162        1      162      163
     163        1      163      164
     164        1      164      165
     165        1      165      166
     166        1      166      167
     167        1      167      168
     168        1      168      169
     169        1      169      170
     170        1      170      171
     171        1      171      172
     172        1      172      173
     173        1      173      174
     174        1      174      175
     175        1      175      176
     176        1      176      177
     177        1      177      178
     178        1      178      179
     179        1      179      180
     180        1      180      181
     181        1      181      182
     182        1      182      183
     183        1      183      184
     184        1      184      185
     185        1      185      186
     186        1      186      187
     187        1      187      188
     188        1      188      189
     189        1      189      190
     190        1      190      191
     191        1      191      192
     192        1      192      193
     193        1      193      194
     194        1      194      195
     195        1      195      196
     196        1      196      197
     197        1      197      198
     198        1      198      199
     199        1      199      200
     200        1      200      201
     201        1      201      202
     202        1      202      203
     203        1      203      204
     204        1      204      205
     205        1      205      206
     206        1      206      207
     207        1      207      208
     208        1      208      209
     209        1      209      210
     210        1      210      211
     211        1      211      212
     212        1      212      213
     213        1      213      214
     214        1      214      215
     215        1      215      216
     216        1      216      217
     217        1      217      218
     218        1      218      219
     219        1      219      220
     220        1      220      221
     221        1      221      222
     222        1      222      223
     223        1      223      224
     224        1      224      225
     225        1      225      226
     226        1      226      227
     227        1      227      228
     228        1      228      229
     229        1      229      230
     230        1      230      231
     231        1      231      232
     232        1      232      233
     233        1      233      234
     234        1      234      235
     235        1      235      236
     236        1      236      237
     237        1      237      238
     238        1      238      239
     239        1      239      240
     240        1      240      241
     241        1      241      242
     242        1      242      243
     243        1      243      244
     244        1      244      245
     245        1      245      246
     246        1      246      247
     247        1      247      248
     248        1      248      249
     249        1      249      250
     250        1      250      251
     251        1      251      252
     252        1      252      253
     253        1      253      254
     254        1      254      255
     255        1      255      256
     256        1      129      257
     257        1      257      258
     258        1      258      259
     259        1      259      260
     260        1      260      261
     261        1      261      262
     262        1      262      263
     263        1      263      264
     264        1      264      265
     265        1      265      266
     266        1      266      267
     267        1      267      268
     268        1      268      269
     269        1      269      270
     270        1      270      271
     271        1      271      272
     272        1      272      273
     273        1      273      274
     274        1      274      275
     275        1      275      276
     276        1      276      277
     277        1      277      278
     278        1      278      279
     279        1      279      280
     280        1      280      281
     281        1      281      282
     282        1      282      283
     283        1      283      284
     284        1      284      285
     285        1      285      286
     286        1      286      287
     287        1      287      288
     288        1      288      289
     289        1      289      290
     290        1      290      291
     291        1      291      292
     292        1      292      293
     293        1      293      294
     294        1      294      295
     295        1      295      296
     296        1      296      297
     297        1      297      298
     298        1      298      299
     299        1      299      300
     300        1      300      301
     301        1      301      302
     302        1      302      303
     303        1      303      304
     304        1      304      305
     305        1      305      306
     306        1      306      307
     307        1      307      308
     308        1      308      309
     309        1      309      310
     310        1      310      311
     311        1      311      312
     312        1      312      313
     313        1      313      314
     314        1      314      315
     315        1      315      316
     316        1      316      317
     317        1      317      318
     318        1      318      319
     319        1      319      320

 Angles

       1        1        1        2        3
       2        1        2        3        4
       3        1        3        4        5
       4        1        4        5        6