#Arrangement of polymer tethered to a walln
     134 atoms
     133 bonds
     133 angles

       2 atom types
       1 bond types
       2 angle types

-61.500000 61.500000 xlo xhi
-61.500000 61.500000 ylo yhi
-61.500000 61.500000 zlo zhi

Masses

 1 1
  2 1

Atoms

       1        1        1 -5.700000 0.000000 -55.400000
       2        1        1 -4.750000 0.000000 -55.400000
       3        1        1 -3.800000 0.000000 -55.400000
       4        1        1 -2.850000 0.000000 -55.400000
       5        1        1 -1.900000 0.000000 -55.400000
       6        1        1 -0.950000 0.000000 -55.400000
       7        1        1 0.000000 0.000000 -55.400000
       8        1        1 0.950000 0.000000 -55.400000
       9        1        1 1.900000 0.000000 -55.400000
      10        1        1 2.850000 0.000000 -55.400000
      11        1        1 3.800000 0.000000 -55.400000
      12        1        1 4.750000 0.000000 -55.400000
      13        1        2 0.000000 0.000000 -54.450000
      14        1        2 0.000000 0.000000 -53.500000
      15        1        2 0.000000 0.000000 -52.550000
      16        1        2 0.000000 0.000000 -51.600000
      17        1        2 0.000000 0.000000 -50.650000
      18        1        2 0.000000 0.000000 -49.700000
      19        1        2 0.000000 0.000000 -48.750000
      20        1        2 0.000000 0.000000 -47.800000
      21        1        2 0.000000 0.000000 -46.850000
      22        1        2 0.000000 0.000000 -45.900000
      23        1        2 0.000000 0.000000 -44.950000
      24        1        2 0.000000 0.000000 -44.000000
      25        1        2 0.000000 0.000000 -43.050000
      26        1        2 0.000000 0.000000 -42.100000
      27        1        2 0.000000 0.000000 -41.150000
      28        1        2 0.000000 0.000000 -40.200000
      29        1        2 0.000000 0.000000 -39.250000
      30        1        2 0.000000 0.000000 -38.300000
      31        1        2 0.000000 0.000000 -37.350000
      32        1        2 0.000000 0.000000 -36.400000
      33        1        2 0.000000 0.000000 -35.450000
      34        1        2 0.000000 0.000000 -34.500000
      35        1        2 0.000000 0.000000 -33.550000
      36        1        2 0.000000 0.000000 -32.600000
      37        1        2 0.000000 0.000000 -31.650000
      38        1        2 0.000000 0.000000 -30.700000
      39        1        2 0.000000 0.000000 -29.750000
      40        1        2 0.000000 0.000000 -28.800000
      41        1        2 0.000000 0.000000 -27.850000
      42        1        2 0.000000 0.000000 -26.900000
      43        1        2 0.000000 0.000000 -25.950000
      44        1        2 0.000000 0.000000 -25.000000
      45        1        2 0.000000 0.000000 -24.050000
      46        1        2 0.000000 0.000000 -23.100000
      47        1        2 0.000000 0.000000 -22.150000
      48        1        2 0.000000 0.000000 -21.200000
      49        1        2 0.000000 0.000000 -20.250000
      50        1        2 0.000000 0.000000 -19.300000
      51        1        2 0.000000 0.000000 -18.350000
      52        1        2 0.000000 0.000000 -17.400000
      53        1        2 0.000000 0.000000 -16.450000
      54        1        2 0.000000 0.000000 -15.500000
      55        1        2 0.000000 0.000000 -14.550000
      56        1        2 0.000000 0.000000 -13.600000
      57        1        2 0.000000 0.000000 -12.650000
      58        1        2 0.000000 0.000000 -11.700000
      59        1        2 0.000000 0.000000 -10.750000
      60        1        2 0.000000 0.000000 -9.800000
      61        1        2 0.000000 0.000000 -8.850000
      62        1        2 0.000000 0.000000 -7.900000
      63        1        2 0.000000 0.000000 -6.950000
      64        1        2 0.000000 0.000000 -6.000000
      65        1        2 0.000000 0.000000 -5.050000
      66        1        2 0.000000 0.000000 -4.100000
      67        1        2 0.000000 0.000000 -3.150000
      68        1        2 0.000000 0.000000 -2.200000
      69        1        2 0.000000 0.000000 -1.250000
      70        1        2 0.000000 0.000000 -0.300000
      71        1        2 0.000000 0.000000 0.650000
      72        1        2 0.000000 0.000000 1.600000
      73        1        2 0.000000 0.000000 2.550000
      74        1        2 0.000000 0.000000 3.500000
      75        1        2 0.000000 0.000000 4.450000
      76        1        2 0.000000 0.000000 5.400000
      77        1        2 0.000000 0.000000 6.350000
      78        1        2 0.000000 0.000000 7.300000
      79        1        2 0.000000 0.000000 8.250000
      80        1        2 0.000000 0.000000 9.200000
      81        1        2 0.000000 0.000000 10.150000
      82        1        2 0.000000 0.000000 11.100000
      83        1        2 0.000000 0.000000 12.050000
      84        1        2 0.000000 0.000000 13.000000
      85        1        2 0.000000 0.000000 13.950000
      86        1        2 0.000000 0.000000 14.900000
      87        1        2 0.000000 0.000000 15.850000
      88        1        2 0.000000 0.000000 16.800000
      89        1        2 0.000000 0.000000 17.750000
      90        1        2 0.000000 0.000000 18.700000
      91        1        2 0.000000 0.000000 19.650000
      92        1        2 0.000000 0.000000 20.600000
      93        1        2 0.000000 0.000000 21.550000
      94        1        2 0.000000 0.000000 22.500000
      95        1        2 0.000000 0.000000 23.450000
      96        1        2 0.000000 0.000000 24.400000
      97        1        2 0.000000 0.000000 25.350000
      98        1        2 0.000000 0.000000 26.300000
      99        1        2 0.000000 0.000000 27.250000
     100        1        2 0.000000 0.000000 28.200000
     101        1        2 0.000000 0.000000 29.150000
     102        1        2 0.000000 0.000000 30.100000
     103        1        2 0.000000 0.000000 31.050000
     104        1        2 0.000000 0.000000 32.000000
     105        1        2 0.000000 0.000000 32.950000
     106        1        2 0.000000 0.000000 33.900000
     107        1        2 0.000000 0.000000 34.850000
     108        1        2 0.000000 0.000000 35.800000
     109        1        2 0.000000 0.000000 36.750000
     110        1        2 0.000000 0.000000 37.700000
     111        1        2 0.000000 0.000000 38.650000
     112        1        2 0.000000 0.000000 39.600000
     113        1        2 0.000000 0.000000 40.550000
     114        1        2 0.000000 0.000000 41.500000
     115        1        2 0.000000 0.000000 42.450000
     116        1        2 0.000000 0.000000 43.400000
     117        1        2 0.000000 0.000000 44.350000
     118        1        2 0.000000 0.000000 45.300000
     119        1        2 0.000000 0.000000 46.250000
     120        1        2 0.000000 0.000000 47.200000
     121        1        2 0.000000 0.000000 48.150000
     122        1        2 0.000000 0.000000 49.100000
     123        1        2 0.000000 0.000000 50.050000
     124        1        2 0.000000 0.000000 51.000000
     125        1        2 0.000000 0.000000 51.950000
     126        1        2 0.000000 0.000000 52.900000
     127        1        2 0.000000 0.000000 53.850000
     128        1        2 0.000000 0.000000 54.800000
     129        1        2 0.000000 0.000000 55.750000
     130        1        2 0.000000 0.000000 56.700000
     131        1        2 0.000000 0.000000 57.650000
     132        1        2 0.000000 0.000000 58.600000
     133        1        2 0.000000 0.000000 59.550000
     134        1        2 0.000000 0.000000 60.500000

 Bonds

       1        1        1        2
       2        1        2        3
       3        1        3        4
       4        1        4        5
       5        1        5        6
       6        1        6        7
       7        1        7        8
       8        1        8        9
       9        1        9       10
      10        1       10       11
      11        1       11       12
      12        1        7       13
      13        1       13       14
      14        1       14       15
      15        1       15       16
      16        1       16       17
      17        1       17       18
      18        1       18       19
      19        1       19       20
      20        1       20       21
      21        1       21       22
      22        1       22       23
      23        1       23       24
      24        1       24       25
      25        1       25       26
      26        1       26       27
      27        1       27       28
      28        1       28       29
      29        1       29       30
      30        1       30       31
      31        1       31       32
      32        1       32       33
      33        1       33       34
      34        1       34       35
      35        1       35       36
      36        1       36       37
      37        1       37       38
      38        1       38       39
      39        1       39       40
      40        1       40       41
      41        1       41       42
      42        1       42       43
      43        1       43       44
      44        1       44       45
      45        1       45       46
      46        1       46       47
      47        1       47       48
      48        1       48       49
      49        1       49       50
      50        1       50       51
      51        1       51       52
      52        1       52       53
      53        1       53       54
      54        1       54       55
      55        1       55       56
      56        1       56       57
      57        1       57       58
      58        1       58       59
      59        1       59       60
      60        1       60       61
      61        1       61       62
      62        1       62       63
      63        1       63       64
      64        1       64       65
      65        1       65       66
      66        1       66       67
      67        1       67       68
      68        1       68       69
      69        1       69       70
      70        1       70       71
      71        1       71       72
      72        1       72       73
      73        1       73       74
      74        1       74       75
      75        1       75       76
      76        1       76       77
      77        1       77       78
      78        1       78       79
      79        1       79       80
      80        1       80       81
      81        1       81       82
      82        1       82       83
      83        1       83       84
      84        1       84       85
      85        1       85       86
      86        1       86       87
      87        1       87       88
      88        1       88       89
      89        1       89       90
      90        1       90       91
      91        1       91       92
      92        1       92       93
      93        1       93       94
      94        1       94       95
      95        1       95       96
      96        1       96       97
      97        1       97       98
      98        1       98       99
      99        1       99      100
     100        1      100      101
     101        1      101      102
     102        1      102      103
     103        1      103      104
     104        1      104      105
     105        1      105      106
     106        1      106      107
     107        1      107      108
     108        1      108      109
     109        1      109      110
     110        1      110      111
     111        1      111      112
     112        1      112      113
     113        1      113      114
     114        1      114      115
     115        1      115      116
     116        1      116      117
     117        1      117      118
     118        1      118      119
     119        1      119      120
     120        1      120      121
     121        1      121      122
     122        1      122      123
     123        1      123      124
     124        1      124      125
     125        1      125      126
     126        1      126      127
     127        1      127      128
     128        1      128      129
     129        1      129      130
     130        1      130      131
     131        1      131      132
     132        1      132      133
     133        1      133      134

 Angles

       1        1        1        2        3
       2        1        2        3        4
       3        1        3        4        5
       4        1        4        5        6
       5        1        5        6        7
       6        1        6        7        8
       7        1        7        8        9
       8        1        8        9       10
       9        1        9       10       11
      10        1       10       11       12
      11        2        6        7       13
      12        2        8        7       13
      13        2        7       13       14
      14        2       13       14       15
      15        2       14       15       16
      16        2       15       16       17
      17        2       16       17       18
      18        2       17       18       19
      19        2       18       19       20
      20        2       19       20       21
      21        2       20       21       22
      22        2       21       22       23
      23        2       22       23       24
      24        2       23       24       25
      25        2       24       25       26
      26        2       25       26       27
      27        2       26       27       28
      28        2       27       28       29
      29        2       28       29       30
      30        2       29       30       31
      31        2       30       31       32
      32        2       31       32       33
      33        2       32       33       34
      34        2       33       34       35
      35        2       34       35       36
      36        2       35       36       37
      37        2       36       37       38
      38        2       37       38       39
      39        2       38       39       40
      40        2       39       40       41
      41        2       40       41       42
      42        2       41       42       43
      43        2       42       43       44
      44        2       43       44       45
      45        2       44       45       46
      46        2       45       46       47
      47        2       46       47       48
      48        2       47       48       49
      49        2       48       49       50
      50        2       49       50       51
      51        2       50       51       52
      52        2       51       52       53
      53        2       52       53       54
      54        2       53       54       55
      55        2       54       55       56
      56        2       55       56       57
      57        2       56       57       58
      58        2       57       58       59
      59        2       58       59       60
      60        2       59       60       61
      61        2       60       61       62
      62        2       61       62       63
      63        2       62       63       64
      64        2       63       64       65
      65        2       64       65       66
      66        2       65       66       67
      67        2       66       67       68
      68        2       67       68       69
      69        2       68       69       70
      70        2       69       70       71
      71        2       70       71       72
      72        2       71       72       73
      73        2       72       73       74
      74        2       73       74       75
      75        2       74       75       76
      76        2       75       76       77
      77        2       76       77       78
      78        2       77       78       79
      79        2       78       79       80
      80        2       79       80       81
      81        2       80       81       82
      82        2       81       82       83
      83        2       82       83       84
      84        2       83       84       85
      85        2       84       85       86
      86        2       85       86       87
      87        2       86       87       88
      88        2       87       88       89
      89        2       88       89       90
      90        2       89       90       91
      91        2       90       91       92
      92        2       91       92       93
      93        2       92       93       94
      94        2       93       94       95
      95        2       94       95       96
      96        2       95       96       97
      97        2       96       97       98
      98        2       97       98       99
      99        2       98       99      100
     100        2       99      100      101
     101        2      100      101      102
     102        2      101      102      103
     103        2      102      103      104
     104        2      103      104      105
     105        2      104      105      106
     106        2      105      106      107
     107        2      106      107      108
     108        2      107      108      109
     109        2      108      109      110
     110        2      109      110      111
     111        2      110      111      112
     112        2      111      112      113
     113        2      112      113      114
     114        2      113      114      115
     115        2      114      115      116
     116        2      115      116      117
     117        2      116      117      118
     118        2      117      118      119
     119        2      118      119      120
     120        2      119      120      121
     121        2      120      121      122
     122        2      121      122      123
     123        2      122      123      124
     124        2      123      124      125
     125        2      124      125      126
     126        2      125      126      127
     127        2      126      127      128
     128        2      127      128      129
     129        2      128      129      130
     130        2      129      130      131
     131        2      130      131      132
     132        2      131      132      133
     133        2      132      133      134
