#Arrangement of polymers snaking through a cube orientation

      80 atoms
      79 bonds
      79 angles

       2 atom types
       1 bond types
       2 angle types

-38.500000 38.500000 xlo xhi
-38.500000 38.500000 ylo yhi
-38.500000 38.500000 zlo zhi

Masses

 1 1
  2 1

Atoms

       1        1        1 -35.625000 0.000000 0.000000
       2        1        1 -34.675000 0.000000 0.000000
       3        1        1 -33.725000 0.000000 0.000000
       4        1        1 -32.775000 0.000000 0.000000
       5        1        1 -31.825000 0.000000 0.000000
       6        1        1 -30.875000 0.000000 0.000000
       7        1        1 -29.925000 0.000000 0.000000
       8        1        1 -28.975000 0.000000 0.000000
       9        1        1 -28.025000 0.000000 0.000000
      10        1        1 -27.075000 0.000000 0.000000
      11        1        1 -26.125000 0.000000 0.000000
      12        1        1 -25.175000 0.000000 0.000000
      13        1        1 -24.225000 0.000000 0.000000
      14        1        1 -23.275000 0.000000 0.000000
      15        1        1 -22.325000 0.000000 0.000000
      16        1        1 -21.375000 0.000000 0.000000
      17        1        1 -20.425000 0.000000 0.000000
      18        1        1 -19.475000 0.000000 0.000000
      19        1        1 -18.525000 0.000000 0.000000
      20        1        1 -17.575000 0.000000 0.000000
      21        1        1 -16.625000 0.000000 0.000000
      22        1        1 -15.675000 0.000000 0.000000
      23        1        1 -14.725000 0.000000 0.000000
      24        1        1 -13.775000 0.000000 0.000000
      25        1        1 -12.825000 0.000000 0.000000
      26        1        1 -11.875000 0.000000 0.000000
      27        1        1 -10.925000 0.000000 0.000000
      28        1        1 -9.975000 0.000000 0.000000
      29        1        1 -9.025000 0.000000 0.000000
      30        1        1 -8.075000 0.000000 0.000000
      31        1        1 -7.125000 0.000000 0.000000
      32        1        1 -6.175000 0.000000 0.000000
      33        1        1 -5.225000 0.000000 0.000000
      34        1        1 -4.275000 0.000000 0.000000
      35        1        1 -3.325000 0.000000 0.000000
      36        1        1 -2.375000 0.000000 0.000000
      37        1        1 -1.425000 0.000000 0.000000
      38        1        1 -0.475000 0.000000 0.000000
      39        1        1 0.475000 0.000000 0.000000
      40        1        1 1.425000 0.000000 0.000000
      41        1        1 2.375000 0.000000 0.000000
      42        1        1 3.325000 0.000000 0.000000
      43        1        1 4.275000 0.000000 0.000000
      44        1        1 5.225000 0.000000 0.000000
      45        1        1 6.175000 0.000000 0.000000
      46        1        1 7.125000 0.000000 0.000000
      47        1        1 8.075000 0.000000 0.000000
      48        1        1 9.025000 0.000000 0.000000
      49        1        1 9.975000 0.000000 0.000000
      50        1        1 10.925000 0.000000 0.000000
      51        1        1 11.875000 0.000000 0.000000
      52        1        1 12.825000 0.000000 0.000000
      53        1        1 13.775000 0.000000 0.000000
      54        1        1 14.725000 0.000000 0.000000
      55        1        1 15.675000 0.000000 0.000000
      56        1        1 16.625000 0.000000 0.000000
      57        1        1 17.575000 0.000000 0.000000
      58        1        1 18.525000 0.000000 0.000000
      59        1        1 19.475000 0.000000 0.000000
      60        1        1 20.425000 0.000000 0.000000
      61        1        1 21.375000 0.000000 0.000000
      62        1        1 22.325000 0.000000 0.000000
      63        1        1 23.275000 0.000000 0.000000
      64        1        1 24.225000 0.000000 0.000000
      65        1        1 25.175000 0.000000 0.000000
      66        1        1 26.125000 0.000000 0.000000
      67        1        1 27.075000 0.000000 0.000000
      68        1        1 28.025000 0.000000 0.000000
      69        1        1 28.975000 0.000000 0.000000
      70        1        1 29.925000 0.000000 0.000000
      71        1        1 30.875000 0.000000 0.000000
      72        1        1 31.825000 0.000000 0.000000
      73        1        1 32.775000 0.000000 0.000000
      74        1        1 33.725000 0.000000 0.000000
      75        1        1 34.675000 0.000000 0.000000
      76        1        1 35.625000 0.000000 0.000000
      77        1        1 36.575000 0.000000 0.000000
      78        1        2 -0.475000 0.000000 0.950000
      79        1        2 -0.475000 0.000000 1.900000
      80        1        2 -0.475000 0.000000 2.850000

 Bonds

       1        1        1        2
       2        1        2        3
       3        1        3        4
       4        1        4        5
       5        1        5        6
       6        1        6        7
       7        1        7        8
       8        1        8        9
       9        1        9       10
      10        1       10       11
      11        1       11       12
      12        1       12       13
      13        1       13       14
      14        1       14       15
      15        1       15       16
      16        1       16       17
      17        1       17       18
      18        1       18       19
      19        1       19       20
      20        1       20       21
      21        1       21       22
      22        1       22       23
      23        1       23       24
      24        1       24       25
      25        1       25       26
      26        1       26       27
      27        1       27       28
      28        1       28       29
      29        1       29       30
      30        1       30       31
      31        1       31       32
      32        1       32       33
      33        1       33       34
      34        1       34       35
      35        1       35       36
      36        1       36       37
      37        1       37       38
      38        1       38       39
      39        1       39       40
      40        1       40       41
      41        1       41       42
      42        1       42       43
      43        1       43       44
      44        1       44       45
      45        1       45       46
      46        1       46       47
      47        1       47       48
      48        1       48       49
      49        1       49       50
      50        1       50       51
      51        1       51       52
      52        1       52       53
      53        1       53       54
      54        1       54       55
      55        1       55       56
      56        1       56       57
      57        1       57       58
      58        1       58       59
      59        1       59       60
      60        1       60       61
      61        1       61       62
      62        1       62       63
      63        1       63       64
      64        1       64       65
      65        1       65       66
      66        1       66       67
      67        1       67       68
      68        1       68       69
      69        1       69       70
      70        1       70       71
      71        1       71       72
      72        1       72       73
      73        1       73       74
      74        1       74       75
      75        1       75       76
      76        1       76       77
      77        1       38       78
      78        1       78       79
      79        1       79       80

 Angles

       1        1        1        2        3
       2        1        2        3        4
       3        1        3        4        5
       4        1        4        5        6
       5        1        5        6        7
       6        1        6        7        8
       7        1        7        8        9
       8        1        8        9       10
       9        1        9       10       11
      10        1       10       11       12
      11        1       11       12       13
      12        1       12       13       14
      13        1       13       14       15
      14        1       14       15       16
      15        1       15       16       17
      16        1       16       17       18
      17        1       17       18       19
      18        1       18       19       20
      19        1       19       20       21
      20        1       20       21       22
      21        1       21       22       23
      22        1       22       23       24
      23        1       23       24       25
      24        1       24       25       26
      25        1       25       26       27
      26        1       26       27       28
      27        1       27       28       29
      28        1       28       29       30
      29        1       29       30       31
      30        1       30       31       32
      31        1       31       32       33
      32        1       32       33       34
      33        1       33       34       35
      34        1       34       35       36
      35        1       35       36       37
      36        1       36       37       38
      37        1       37       38       39
      38        1       38       39       40
      39        1       39       40       41
      40        1       40       41       42
      41        1       41       42       43
      42        1       42       43       44
      43        1       43       44       45
      44        1       44       45       46
      45        1       45       46       47
      46        1       46       47       48
      47        1       47       48       49
      48        1       48       49       50
      49        1       49       50       51
      50        1       50       51       52
      51        1       51       52       53
      52        1       52       53       54
      53        1       53       54       55
      54        1       54       55       56
      55        1       55       56       57
      56        1       56       57       58
      57        1       57       58       59
      58        1       58       59       60
      59        1       59       60       61
      60        1       60       61       62
      61        1       61       62       63
      62        1       62       63       64
      63        1       63       64       65
      64        1       64       65       66
      65        1       65       66       67
      66        1       66       67       68
      67        1       67       68       69
      68        1       68       69       70
      69        1       69       70       71
      70        1       70       71       72
      71        1       71       72       73
      72        1       72       73       74
      73        1       73       74       75
      74        1       74       75       76
      75        1       75       76       77
      76        2       37       38       78
      77        2       39       38       78
      78        2       38       78       79
      79        2       78       79       80
