#Arrangement of polymer tethered to a walln
    3668 atoms
    3667 bonds
    3667 angles

       2 atom types
       1 bond types
       2 angle types

-1829.500000 1829.500000 xlo xhi
-1829.500000 1829.500000 ylo yhi
-1829.500000 1829.500000 zlo zhi

Masses

 1 1
  2 1

Atoms

       1        1        1 -1737.550000 0.000000 1820.950000
       2        1        1 -1736.600000 0.000000 1820.950000
       3        1        1 -1735.650000 0.000000 1820.950000
       4        1        1 -1734.700000 0.000000 1820.950000
       5        1        1 -1733.750000 0.000000 1820.950000
       6        1        1 -1732.800000 0.000000 1820.950000
       7        1        1 -1731.850000 0.000000 1820.950000
       8        1        1 -1730.900000 0.000000 1820.950000
       9        1        1 -1729.950000 0.000000 1820.950000
      10        1        1 -1729.000000 0.000000 1820.950000
      11        1        1 -1728.050000 0.000000 1820.950000
      12        1        1 -1727.100000 0.000000 1820.950000
      13        1        1 -1726.150000 0.000000 1820.950000
      14        1        1 -1725.200000 0.000000 1820.950000
      15        1        1 -1724.250000 0.000000 1820.950000
      16        1        1 -1723.300000 0.000000 1820.950000
      17        1        1 -1722.350000 0.000000 1820.950000
      18        1        1 -1721.400000 0.000000 1820.950000
      19        1        1 -1720.450000 0.000000 1820.950000
      20        1        1 -1719.500000 0.000000 1820.950000
      21        1        1 -1718.550000 0.000000 1820.950000
      22        1        1 -1717.600000 0.000000 1820.950000
      23        1        1 -1716.650000 0.000000 1820.950000
      24        1        1 -1715.700000 0.000000 1820.950000
      25        1        1 -1714.750000 0.000000 1820.950000
      26        1        1 -1713.800000 0.000000 1820.950000
      27        1        1 -1712.850000 0.000000 1820.950000
      28        1        1 -1711.900000 0.000000 1820.950000
      29        1        1 -1710.950000 0.000000 1820.950000
      30        1        1 -1710.000000 0.000000 1820.950000
      31        1        1 -1709.050000 0.000000 1820.950000
      32        1        1 -1708.100000 0.000000 1820.950000
      33        1        1 -1707.150000 0.000000 1820.950000
      34        1        1 -1706.200000 0.000000 1820.950000
      35        1        1 -1705.250000 0.000000 1820.950000
      36        1        1 -1704.300000 0.000000 1820.950000
      37        1        1 -1703.350000 0.000000 1820.950000
      38        1        1 -1702.400000 0.000000 1820.950000
      39        1        1 -1701.450000 0.000000 1820.950000
      40        1        1 -1700.500000 0.000000 1820.950000
      41        1        1 -1699.550000 0.000000 1820.950000
      42        1        1 -1698.600000 0.000000 1820.950000
      43        1        1 -1697.650000 0.000000 1820.950000
      44        1        1 -1696.700000 0.000000 1820.950000
      45        1        1 -1695.750000 0.000000 1820.950000
      46        1        1 -1694.800000 0.000000 1820.950000
      47        1        1 -1693.850000 0.000000 1820.950000
      48        1        1 -1692.900000 0.000000 1820.950000
      49        1        1 -1691.950000 0.000000 1820.950000
      50        1        1 -1691.000000 0.000000 1820.950000
      51        1        1 -1690.050000 0.000000 1820.950000
      52        1        1 -1689.100000 0.000000 1820.950000
      53        1        1 -1688.150000 0.000000 1820.950000
      54        1        1 -1687.200000 0.000000 1820.950000
      55        1        1 -1686.250000 0.000000 1820.950000
      56        1        1 -1685.300000 0.000000 1820.950000
      57        1        1 -1684.350000 0.000000 1820.950000
      58        1        1 -1683.400000 0.000000 1820.950000
      59        1        1 -1682.450000 0.000000 1820.950000
      60        1        1 -1681.500000 0.000000 1820.950000
      61        1        1 -1680.550000 0.000000 1820.950000
      62        1        1 -1679.600000 0.000000 1820.950000
      63        1        1 -1678.650000 0.000000 1820.950000
      64        1        1 -1677.700000 0.000000 1820.950000
      65        1        1 -1676.750000 0.000000 1820.950000
      66        1        1 -1675.800000 0.000000 1820.950000
      67        1        1 -1674.850000 0.000000 1820.950000
      68        1        1 -1673.900000 0.000000 1820.950000
      69        1        1 -1672.950000 0.000000 1820.950000
      70        1        1 -1672.000000 0.000000 1820.950000
      71        1        1 -1671.050000 0.000000 1820.950000
      72        1        1 -1670.100000 0.000000 1820.950000
      73        1        1 -1669.150000 0.000000 1820.950000
      74        1        1 -1668.200000 0.000000 1820.950000
      75        1        1 -1667.250000 0.000000 1820.950000
      76        1        1 -1666.300000 0.000000 1820.950000
      77        1        1 -1665.350000 0.000000 1820.950000
      78        1        1 -1664.400000 0.000000 1820.950000
      79        1        1 -1663.450000 0.000000 1820.950000
      80        1        1 -1662.500000 0.000000 1820.950000
      81        1        1 -1661.550000 0.000000 1820.950000
      82        1        1 -1660.600000 0.000000 1820.950000
      83        1        1 -1659.650000 0.000000 1820.950000
      84        1        1 -1658.700000 0.000000 1820.950000
      85        1        1 -1657.750000 0.000000 1820.950000
      86        1        1 -1656.800000 0.000000 1820.950000
      87        1        1 -1655.850000 0.000000 1820.950000
      88        1        1 -1654.900000 0.000000 1820.950000
      89        1        1 -1653.950000 0.000000 1820.950000
      90        1        1 -1653.000000 0.000000 1820.950000
      91        1        1 -1652.050000 0.000000 1820.950000
      92        1        1 -1651.100000 0.000000 1820.950000
      93        1        1 -1650.150000 0.000000 1820.950000
      94        1        1 -1649.200000 0.000000 1820.950000
      95        1        1 -1648.250000 0.000000 1820.950000
      96        1        1 -1647.300000 0.000000 1820.950000
      97        1        1 -1646.350000 0.000000 1820.950000
      98        1        1 -1645.400000 0.000000 1820.950000
      99        1        1 -1644.450000 0.000000 1820.950000
     100        1        1 -1643.500000 0.000000 1820.950000
     101        1        1 -1642.550000 0.000000 1820.950000
     102        1        1 -1641.600000 0.000000 1820.950000
     103        1        1 -1640.650000 0.000000 1820.950000
     104        1        1 -1639.700000 0.000000 1820.950000
     105        1        1 -1638.750000 0.000000 1820.950000
     106        1        1 -1637.800000 0.000000 1820.950000
     107        1        1 -1636.850000 0.000000 1820.950000
     108        1        1 -1635.900000 0.000000 1820.950000
     109        1        1 -1634.950000 0.000000 1820.950000
     110        1        1 -1634.000000 0.000000 1820.950000
     111        1        1 -1633.050000 0.000000 1820.950000
     112        1        1 -1632.100000 0.000000 1820.950000
     113        1        1 -1631.150000 0.000000 1820.950000
     114        1        1 -1630.200000 0.000000 1820.950000
     115        1        1 -1629.250000 0.000000 1820.950000
     116        1        1 -1628.300000 0.000000 1820.950000
     117        1        1 -1627.350000 0.000000 1820.950000
     118        1        1 -1626.400000 0.000000 1820.950000
     119        1        1 -1625.450000 0.000000 1820.950000
     120        1        1 -1624.500000 0.000000 1820.950000
     121        1        1 -1623.550000 0.000000 1820.950000
     122        1        1 -1622.600000 0.000000 1820.950000
     123        1        1 -1621.650000 0.000000 1820.950000
     124        1        1 -1620.700000 0.000000 1820.950000
     125        1        1 -1619.750000 0.000000 1820.950000
     126        1        1 -1618.800000 0.000000 1820.950000
     127        1        1 -1617.850000 0.000000 1820.950000
     128        1        1 -1616.900000 0.000000 1820.950000
     129        1        1 -1615.950000 0.000000 1820.950000
     130        1        1 -1615.000000 0.000000 1820.950000
     131        1        1 -1614.050000 0.000000 1820.950000
     132        1        1 -1613.100000 0.000000 1820.950000
     133        1        1 -1612.150000 0.000000 1820.950000
     134        1        1 -1611.200000 0.000000 1820.950000
     135        1        1 -1610.250000 0.000000 1820.950000
     136        1        1 -1609.300000 0.000000 1820.950000
     137        1        1 -1608.350000 0.000000 1820.950000
     138        1        1 -1607.400000 0.000000 1820.950000
     139        1        1 -1606.450000 0.000000 1820.950000
     140        1        1 -1605.500000 0.000000 1820.950000
     141        1        1 -1604.550000 0.000000 1820.950000
     142        1        1 -1603.600000 0.000000 1820.950000
     143        1        1 -1602.650000 0.000000 1820.950000
     144        1        1 -1601.700000 0.000000 1820.950000
     145        1        1 -1600.750000 0.000000 1820.950000
     146        1        1 -1599.800000 0.000000 1820.950000
     147        1        1 -1598.850000 0.000000 1820.950000
     148        1        1 -1597.900000 0.000000 1820.950000
     149        1        1 -1596.950000 0.000000 1820.950000
     150        1        1 -1596.000000 0.000000 1820.950000
     151        1        1 -1595.050000 0.000000 1820.950000
     152        1        1 -1594.100000 0.000000 1820.950000
     153        1        1 -1593.150000 0.000000 1820.950000
     154        1        1 -1592.200000 0.000000 1820.950000
     155        1        1 -1591.250000 0.000000 1820.950000
     156        1        1 -1590.300000 0.000000 1820.950000
     157        1        1 -1589.350000 0.000000 1820.950000
     158        1        1 -1588.400000 0.000000 1820.950000
     159        1        1 -1587.450000 0.000000 1820.950000
     160        1        1 -1586.500000 0.000000 1820.950000
     161        1        1 -1585.550000 0.000000 1820.950000
     162        1        1 -1584.600000 0.000000 1820.950000
     163        1        1 -1583.650000 0.000000 1820.950000
     164        1        1 -1582.700000 0.000000 1820.950000
     165        1        1 -1581.750000 0.000000 1820.950000
     166        1        1 -1580.800000 0.000000 1820.950000
     167        1        1 -1579.850000 0.000000 1820.950000
     168        1        1 -1578.900000 0.000000 1820.950000
     169        1        1 -1577.950000 0.000000 1820.950000
     170        1        1 -1577.000000 0.000000 1820.950000
     171        1        1 -1576.050000 0.000000 1820.950000
     172        1        1 -1575.100000 0.000000 1820.950000
     173        1        1 -1574.150000 0.000000 1820.950000
     174        1        1 -1573.200000 0.000000 1820.950000
     175        1        1 -1572.250000 0.000000 1820.950000
     176        1        1 -1571.300000 0.000000 1820.950000
     177        1        1 -1570.350000 0.000000 1820.950000
     178        1        1 -1569.400000 0.000000 1820.950000
     179        1        1 -1568.450000 0.000000 1820.950000
     180        1        1 -1567.500000 0.000000 1820.950000
     181        1        1 -1566.550000 0.000000 1820.950000
     182        1        1 -1565.600000 0.000000 1820.950000
     183        1        1 -1564.650000 0.000000 1820.950000
     184        1        1 -1563.700000 0.000000 1820.950000
     185        1        1 -1562.750000 0.000000 1820.950000
     186        1        1 -1561.800000 0.000000 1820.950000
     187        1        1 -1560.850000 0.000000 1820.950000
     188        1        1 -1559.900000 0.000000 1820.950000
     189        1        1 -1558.950000 0.000000 1820.950000
     190        1        1 -1558.000000 0.000000 1820.950000
     191        1        1 -1557.050000 0.000000 1820.950000
     192        1        1 -1556.100000 0.000000 1820.950000
     193        1        1 -1555.150000 0.000000 1820.950000
     194        1        1 -1554.200000 0.000000 1820.950000
     195        1        1 -1553.250000 0.000000 1820.950000
     196        1        1 -1552.300000 0.000000 1820.950000
     197        1        1 -1551.350000 0.000000 1820.950000
     198        1        1 -1550.400000 0.000000 1820.950000
     199        1        1 -1549.450000 0.000000 1820.950000
     200        1        1 -1548.500000 0.000000 1820.950000
     201        1        1 -1547.550000 0.000000 1820.950000
     202        1        1 -1546.600000 0.000000 1820.950000
     203        1        1 -1545.650000 0.000000 1820.950000
     204        1        1 -1544.700000 0.000000 1820.950000
     205        1        1 -1543.750000 0.000000 1820.950000
     206        1        1 -1542.800000 0.000000 1820.950000
     207        1        1 -1541.850000 0.000000 1820.950000
     208        1        1 -1540.900000 0.000000 1820.950000
     209        1        1 -1539.950000 0.000000 1820.950000
     210        1        1 -1539.000000 0.000000 1820.950000
     211        1        1 -1538.050000 0.000000 1820.950000
     212        1        1 -1537.100000 0.000000 1820.950000
     213        1        1 -1536.150000 0.000000 1820.950000
     214        1        1 -1535.200000 0.000000 1820.950000
     215        1        1 -1534.250000 0.000000 1820.950000
     216        1        1 -1533.300000 0.000000 1820.950000
     217        1        1 -1532.350000 0.000000 1820.950000
     218        1        1 -1531.400000 0.000000 1820.950000
     219        1        1 -1530.450000 0.000000 1820.950000
     220        1        1 -1529.500000 0.000000 1820.950000
     221        1        1 -1528.550000 0.000000 1820.950000
     222        1        1 -1527.600000 0.000000 1820.950000
     223        1        1 -1526.650000 0.000000 1820.950000
     224        1        1 -1525.700000 0.000000 1820.950000
     225        1        1 -1524.750000 0.000000 1820.950000
     226        1        1 -1523.800000 0.000000 1820.950000
     227        1        1 -1522.850000 0.000000 1820.950000
     228        1        1 -1521.900000 0.000000 1820.950000
     229        1        1 -1520.950000 0.000000 1820.950000
     230        1        1 -1520.000000 0.000000 1820.950000
     231        1        1 -1519.050000 0.000000 1820.950000
     232        1        1 -1518.100000 0.000000 1820.950000
     233        1        1 -1517.150000 0.000000 1820.950000
     234        1        1 -1516.200000 0.000000 1820.950000
     235        1        1 -1515.250000 0.000000 1820.950000
     236        1        1 -1514.300000 0.000000 1820.950000
     237        1        1 -1513.350000 0.000000 1820.950000
     238        1        1 -1512.400000 0.000000 1820.950000
     239        1        1 -1511.450000 0.000000 1820.950000
     240        1        1 -1510.500000 0.000000 1820.950000
     241        1        1 -1509.550000 0.000000 1820.950000
     242        1        1 -1508.600000 0.000000 1820.950000
     243        1        1 -1507.650000 0.000000 1820.950000
     244        1        1 -1506.700000 0.000000 1820.950000
     245        1        1 -1505.750000 0.000000 1820.950000
     246        1        1 -1504.800000 0.000000 1820.950000
     247        1        1 -1503.850000 0.000000 1820.950000
     248        1        1 -1502.900000 0.000000 1820.950000
     249        1        1 -1501.950000 0.000000 1820.950000
     250        1        1 -1501.000000 0.000000 1820.950000
     251        1        1 -1500.050000 0.000000 1820.950000
     252        1        1 -1499.100000 0.000000 1820.950000
     253        1        1 -1498.150000 0.000000 1820.950000
     254        1        1 -1497.200000 0.000000 1820.950000
     255        1        1 -1496.250000 0.000000 1820.950000
     256        1        1 -1495.300000 0.000000 1820.950000
     257        1        1 -1494.350000 0.000000 1820.950000
     258        1        1 -1493.400000 0.000000 1820.950000
     259        1        1 -1492.450000 0.000000 1820.950000
     260        1        1 -1491.500000 0.000000 1820.950000
     261        1        1 -1490.550000 0.000000 1820.950000
     262        1        1 -1489.600000 0.000000 1820.950000
     263        1        1 -1488.650000 0.000000 1820.950000
     264        1        1 -1487.700000 0.000000 1820.950000
     265        1        1 -1486.750000 0.000000 1820.950000
     266        1        1 -1485.800000 0.000000 1820.950000
     267        1        1 -1484.850000 0.000000 1820.950000
     268        1        1 -1483.900000 0.000000 1820.950000
     269        1        1 -1482.950000 0.000000 1820.950000
     270        1        1 -1482.000000 0.000000 1820.950000
     271        1        1 -1481.050000 0.000000 1820.950000
     272        1        1 -1480.100000 0.000000 1820.950000
     273        1        1 -1479.150000 0.000000 1820.950000
     274        1        1 -1478.200000 0.000000 1820.950000
     275        1        1 -1477.250000 0.000000 1820.950000
     276        1        1 -1476.300000 0.000000 1820.950000
     277        1        1 -1475.350000 0.000000 1820.950000
     278        1        1 -1474.400000 0.000000 1820.950000
     279        1        1 -1473.450000 0.000000 1820.950000
     280        1        1 -1472.500000 0.000000 1820.950000
     281        1        1 -1471.550000 0.000000 1820.950000
     282        1        1 -1470.600000 0.000000 1820.950000
     283        1        1 -1469.650000 0.000000 1820.950000
     284        1        1 -1468.700000 0.000000 1820.950000
     285        1        1 -1467.750000 0.000000 1820.950000
     286        1        1 -1466.800000 0.000000 1820.950000
     287        1        1 -1465.850000 0.000000 1820.950000
     288        1        1 -1464.900000 0.000000 1820.950000
     289        1        1 -1463.950000 0.000000 1820.950000
     290        1        1 -1463.000000 0.000000 1820.950000
     291        1        1 -1462.050000 0.000000 1820.950000
     292        1        1 -1461.100000 0.000000 1820.950000
     293        1        1 -1460.150000 0.000000 1820.950000
     294        1        1 -1459.200000 0.000000 1820.950000
     295        1        1 -1458.250000 0.000000 1820.950000
     296        1        1 -1457.300000 0.000000 1820.950000
     297        1        1 -1456.350000 0.000000 1820.950000
     298        1        1 -1455.400000 0.000000 1820.950000
     299        1        1 -1454.450000 0.000000 1820.950000
     300        1        1 -1453.500000 0.000000 1820.950000
     301        1        1 -1452.550000 0.000000 1820.950000
     302        1        1 -1451.600000 0.000000 1820.950000
     303        1        1 -1450.650000 0.000000 1820.950000
     304        1        1 -1449.700000 0.000000 1820.950000
     305        1        1 -1448.750000 0.000000 1820.950000
     306        1        1 -1447.800000 0.000000 1820.950000
     307        1        1 -1446.850000 0.000000 1820.950000
     308        1        1 -1445.900000 0.000000 1820.950000
     309        1        1 -1444.950000 0.000000 1820.950000
     310        1        1 -1444.000000 0.000000 1820.950000
     311        1        1 -1443.050000 0.000000 1820.950000
     312        1        1 -1442.100000 0.000000 1820.950000
     313        1        1 -1441.150000 0.000000 1820.950000
     314        1        1 -1440.200000 0.000000 1820.950000
     315        1        1 -1439.250000 0.000000 1820.950000
     316        1        1 -1438.300000 0.000000 1820.950000
     317        1        1 -1437.350000 0.000000 1820.950000
     318        1        1 -1436.400000 0.000000 1820.950000
     319        1        1 -1435.450000 0.000000 1820.950000
     320        1        1 -1434.500000 0.000000 1820.950000
     321        1        1 -1433.550000 0.000000 1820.950000
     322        1        1 -1432.600000 0.000000 1820.950000
     323        1        1 -1431.650000 0.000000 1820.950000
     324        1        1 -1430.700000 0.000000 1820.950000
     325        1        1 -1429.750000 0.000000 1820.950000
     326        1        1 -1428.800000 0.000000 1820.950000
     327        1        1 -1427.850000 0.000000 1820.950000
     328        1        1 -1426.900000 0.000000 1820.950000
     329        1        1 -1425.950000 0.000000 1820.950000
     330        1        1 -1425.000000 0.000000 1820.950000
     331        1        1 -1424.050000 0.000000 1820.950000
     332        1        1 -1423.100000 0.000000 1820.950000
     333        1        1 -1422.150000 0.000000 1820.950000
     334        1        1 -1421.200000 0.000000 1820.950000
     335        1        1 -1420.250000 0.000000 1820.950000
     336        1        1 -1419.300000 0.000000 1820.950000
     337        1        1 -1418.350000 0.000000 1820.950000
     338        1        1 -1417.400000 0.000000 1820.950000
     339        1        1 -1416.450000 0.000000 1820.950000
     340        1        1 -1415.500000 0.000000 1820.950000
     341        1        1 -1414.550000 0.000000 1820.950000
     342        1        1 -1413.600000 0.000000 1820.950000
     343        1        1 -1412.650000 0.000000 1820.950000
     344        1        1 -1411.700000 0.000000 1820.950000
     345        1        1 -1410.750000 0.000000 1820.950000
     346        1        1 -1409.800000 0.000000 1820.950000
     347        1        1 -1408.850000 0.000000 1820.950000
     348        1        1 -1407.900000 0.000000 1820.950000
     349        1        1 -1406.950000 0.000000 1820.950000
     350        1        1 -1406.000000 0.000000 1820.950000
     351        1        1 -1405.050000 0.000000 1820.950000
     352        1        1 -1404.100000 0.000000 1820.950000
     353        1        1 -1403.150000 0.000000 1820.950000
     354        1        1 -1402.200000 0.000000 1820.950000
     355        1        1 -1401.250000 0.000000 1820.950000
     356        1        1 -1400.300000 0.000000 1820.950000
     357        1        1 -1399.350000 0.000000 1820.950000
     358        1        1 -1398.400000 0.000000 1820.950000
     359        1        1 -1397.450000 0.000000 1820.950000
     360        1        1 -1396.500000 0.000000 1820.950000
     361        1        1 -1395.550000 0.000000 1820.950000
     362        1        1 -1394.600000 0.000000 1820.950000
     363        1        1 -1393.650000 0.000000 1820.950000
     364        1        1 -1392.700000 0.000000 1820.950000
     365        1        1 -1391.750000 0.000000 1820.950000
     366        1        1 -1390.800000 0.000000 1820.950000
     367        1        1 -1389.850000 0.000000 1820.950000
     368        1        1 -1388.900000 0.000000 1820.950000
     369        1        1 -1387.950000 0.000000 1820.950000
     370        1        1 -1387.000000 0.000000 1820.950000
     371        1        1 -1386.050000 0.000000 1820.950000
     372        1        1 -1385.100000 0.000000 1820.950000
     373        1        1 -1384.150000 0.000000 1820.950000
     374        1        1 -1383.200000 0.000000 1820.950000
     375        1        1 -1382.250000 0.000000 1820.950000
     376        1        1 -1381.300000 0.000000 1820.950000
     377        1        1 -1380.350000 0.000000 1820.950000
     378        1        1 -1379.400000 0.000000 1820.950000
     379        1        1 -1378.450000 0.000000 1820.950000
     380        1        1 -1377.500000 0.000000 1820.950000
     381        1        1 -1376.550000 0.000000 1820.950000
     382        1        1 -1375.600000 0.000000 1820.950000
     383        1        1 -1374.650000 0.000000 1820.950000
     384        1        1 -1373.700000 0.000000 1820.950000
     385        1        1 -1372.750000 0.000000 1820.950000
     386        1        1 -1371.800000 0.000000 1820.950000
     387        1        1 -1370.850000 0.000000 1820.950000
     388        1        1 -1369.900000 0.000000 1820.950000
     389        1        1 -1368.950000 0.000000 1820.950000
     390        1        1 -1368.000000 0.000000 1820.950000
     391        1        1 -1367.050000 0.000000 1820.950000
     392        1        1 -1366.100000 0.000000 1820.950000
     393        1        1 -1365.150000 0.000000 1820.950000
     394        1        1 -1364.200000 0.000000 1820.950000
     395        1        1 -1363.250000 0.000000 1820.950000
     396        1        1 -1362.300000 0.000000 1820.950000
     397        1        1 -1361.350000 0.000000 1820.950000
     398        1        1 -1360.400000 0.000000 1820.950000
     399        1        1 -1359.450000 0.000000 1820.950000
     400        1        1 -1358.500000 0.000000 1820.950000
     401        1        1 -1357.550000 0.000000 1820.950000
     402        1        1 -1356.600000 0.000000 1820.950000
     403        1        1 -1355.650000 0.000000 1820.950000
     404        1        1 -1354.700000 0.000000 1820.950000
     405        1        1 -1353.750000 0.000000 1820.950000
     406        1        1 -1352.800000 0.000000 1820.950000
     407        1        1 -1351.850000 0.000000 1820.950000
     408        1        1 -1350.900000 0.000000 1820.950000
     409        1        1 -1349.950000 0.000000 1820.950000
     410        1        1 -1349.000000 0.000000 1820.950000
     411        1        1 -1348.050000 0.000000 1820.950000
     412        1        1 -1347.100000 0.000000 1820.950000
     413        1        1 -1346.150000 0.000000 1820.950000
     414        1        1 -1345.200000 0.000000 1820.950000
     415        1        1 -1344.250000 0.000000 1820.950000
     416        1        1 -1343.300000 0.000000 1820.950000
     417        1        1 -1342.350000 0.000000 1820.950000
     418        1        1 -1341.400000 0.000000 1820.950000
     419        1        1 -1340.450000 0.000000 1820.950000
     420        1        1 -1339.500000 0.000000 1820.950000
     421        1        1 -1338.550000 0.000000 1820.950000
     422        1        1 -1337.600000 0.000000 1820.950000
     423        1        1 -1336.650000 0.000000 1820.950000
     424        1        1 -1335.700000 0.000000 1820.950000
     425        1        1 -1334.750000 0.000000 1820.950000
     426        1        1 -1333.800000 0.000000 1820.950000
     427        1        1 -1332.850000 0.000000 1820.950000
     428        1        1 -1331.900000 0.000000 1820.950000
     429        1        1 -1330.950000 0.000000 1820.950000
     430        1        1 -1330.000000 0.000000 1820.950000
     431        1        1 -1329.050000 0.000000 1820.950000
     432        1        1 -1328.100000 0.000000 1820.950000
     433        1        1 -1327.150000 0.000000 1820.950000
     434        1        1 -1326.200000 0.000000 1820.950000
     435        1        1 -1325.250000 0.000000 1820.950000
     436        1        1 -1324.300000 0.000000 1820.950000
     437        1        1 -1323.350000 0.000000 1820.950000
     438        1        1 -1322.400000 0.000000 1820.950000
     439        1        1 -1321.450000 0.000000 1820.950000
     440        1        1 -1320.500000 0.000000 1820.950000
     441        1        1 -1319.550000 0.000000 1820.950000
     442        1        1 -1318.600000 0.000000 1820.950000
     443        1        1 -1317.650000 0.000000 1820.950000
     444        1        1 -1316.700000 0.000000 1820.950000
     445        1        1 -1315.750000 0.000000 1820.950000
     446        1        1 -1314.800000 0.000000 1820.950000
     447        1        1 -1313.850000 0.000000 1820.950000
     448        1        1 -1312.900000 0.000000 1820.950000
     449        1        1 -1311.950000 0.000000 1820.950000
     450        1        1 -1311.000000 0.000000 1820.950000
     451        1        1 -1310.050000 0.000000 1820.950000
     452        1        1 -1309.100000 0.000000 1820.950000
     453        1        1 -1308.150000 0.000000 1820.950000
     454        1        1 -1307.200000 0.000000 1820.950000
     455        1        1 -1306.250000 0.000000 1820.950000
     456        1        1 -1305.300000 0.000000 1820.950000
     457        1        1 -1304.350000 0.000000 1820.950000
     458        1        1 -1303.400000 0.000000 1820.950000
     459        1        1 -1302.450000 0.000000 1820.950000
     460        1        1 -1301.500000 0.000000 1820.950000
     461        1        1 -1300.550000 0.000000 1820.950000
     462        1        1 -1299.600000 0.000000 1820.950000
     463        1        1 -1298.650000 0.000000 1820.950000
     464        1        1 -1297.700000 0.000000 1820.950000
     465        1        1 -1296.750000 0.000000 1820.950000
     466        1        1 -1295.800000 0.000000 1820.950000
     467        1        1 -1294.850000 0.000000 1820.950000
     468        1        1 -1293.900000 0.000000 1820.950000
     469        1        1 -1292.950000 0.000000 1820.950000
     470        1        1 -1292.000000 0.000000 1820.950000
     471        1        1 -1291.050000 0.000000 1820.950000
     472        1        1 -1290.100000 0.000000 1820.950000
     473        1        1 -1289.150000 0.000000 1820.950000
     474        1        1 -1288.200000 0.000000 1820.950000
     475        1        1 -1287.250000 0.000000 1820.950000
     476        1        1 -1286.300000 0.000000 1820.950000
     477        1        1 -1285.350000 0.000000 1820.950000
     478        1        1 -1284.400000 0.000000 1820.950000
     479        1        1 -1283.450000 0.000000 1820.950000
     480        1        1 -1282.500000 0.000000 1820.950000
     481        1        1 -1281.550000 0.000000 1820.950000
     482        1        1 -1280.600000 0.000000 1820.950000
     483        1        1 -1279.650000 0.000000 1820.950000
     484        1        1 -1278.700000 0.000000 1820.950000
     485        1        1 -1277.750000 0.000000 1820.950000
     486        1        1 -1276.800000 0.000000 1820.950000
     487        1        1 -1275.850000 0.000000 1820.950000