ITEM: TIMESTEP
0
ITEM: NUMBER OF ATOMS
80
ITEM: BOX BOUNDS mm mm mm
-3.8500000000000000e+01 3.8500000000000000e+01
-3.8500000000000000e+01 3.8500000000000000e+01
-3.8500000000000000e+01 3.8500000000000000e+01
ITEM: ATOMS id type x y z
1 1 -35.625 0 0
2 1 -34.675 0 0
3 1 -33.725 0 0
4 1 -32.775 0 0
5 1 -31.825 0 0
6 1 -30.875 0 0
7 1 -29.925 0 0
8 1 -28.975 0 0
9 1 -28.025 0 0
10 1 -27.075 0 0
11 1 -26.125 0 0
12 1 -25.175 0 0
13 1 -24.225 0 0
14 1 -23.275 0 0
15 1 -22.325 0 0
16 1 -21.375 0 0
17 1 -20.425 0 0
18 1 -19.475 0 0
19 1 -18.525 0 0
20 1 -17.575 0 0
21 1 -16.625 0 0
22 1 -15.675 0 0
23 1 -14.725 0 0
24 1 -13.775 0 0
25 1 -12.825 0 0
26 1 -11.875 0 0
27 1 -10.925 0 0
28 1 -9.975 0 0
29 1 -9.025 0 0
30 1 -8.075 0 0
31 1 -7.125 0 0
32 1 -6.175 0 0
33 1 -5.225 0 0
34 1 -4.275 0 0
35 1 -3.325 0 0
36 1 -2.375 0 0
37 1 -1.425 0 0
38 1 -0.475 0 0
39 1 0.475 0 0
40 1 1.425 0 0
41 1 2.375 0 0
42 1 3.325 0 0
43 1 4.275 0 0
44 1 5.225 0 0
45 1 6.175 0 0
46 1 7.125 0 0
47 1 8.075 0 0
48 1 9.025 0 0
49 1 9.975 0 0
50 1 10.925 0 0
51 1 11.875 0 0
52 1 12.825 0 0
53 1 13.775 0 0
54 1 14.725 0 0
55 1 15.675 0 0
56 1 16.625 0 0
57 1 17.575 0 0
58 1 18.525 0 0
59 1 19.475 0 0
60 1 20.425 0 0
61 1 21.375 0 0
62 1 22.325 0 0
63 1 23.275 0 0
64 1 24.225 0 0
65 1 25.175 0 0
66 1 26.125 0 0
67 1 27.075 0 0
68 1 28.025 0 0
69 1 28.975 0 0
70 1 29.925 0 0
71 1 30.875 0 0
72 1 31.825 0 0
73 1 32.775 0 0
74 1 33.725 0 0
75 1 34.675 0 0
76 1 35.625 0 0
77 1 36.575 0 0
78 2 -0.475 0 0.95
79 2 -0.475 0 1.9
80 2 -0.475 0 2.85
ITEM: TIMESTEP
10000
ITEM: NUMBER OF ATOMS
80
ITEM: BOX BOUNDS mm mm mm
-3.8500000000000000e+01 3.8500000000000000e+01
-3.8500000000000000e+01 3.8500000000000000e+01
-3.8500000000000000e+01 3.8500000000000000e+01
ITEM: ATOMS id type x y z
1 1 -35.727 -4.43483 3.9064
2 1 -34.7386 -4.50351 3.5741
3 1 -33.8121 -4.77367 3.08663
4 1 -32.7496 -4.95334 2.71085
5 1 -31.9077 -4.73322 1.90297
6 1 -30.9981 -4.38412 1.44641
7 1 -30.1552 -3.99764 1.08776
8 1 -29.4583 -3.74045 0.299637
9 1 -28.4412 -3.64624 0.282482
10 1 -27.4593 -3.99201 0.150575
11 1 -26.4596 -4.33987 0.367855
12 1 -25.2152 -4.36632 0.597691
13 1 -24.2734 -4.28979 1.04738
14 1 -23.2432 -4.04994 1.50171
15 1 -22.3472 -3.96635 2.00326
16 1 -21.3392 -4.07105 2.50353
17 1 -20.2819 -4.25791 2.95659
18 1 -19.2905 -4.42481 3.37458
19 1 -18.0811 -4.64513 3.41513
20 1 -17.0829 -4.69845 3.56991
21 1 -16.0094 -4.8693 3.69667
22 1 -14.8082 -5.05066 3.83319
23 1 -13.6882 -5.40318 3.71719
24 1 -12.7521 -5.57814 3.43081
25 1 -11.7035 -5.35687 2.99245
26 1 -10.9131 -4.7327 2.58391
27 1 -10.0977 -4.21734 2.00701
28 1 -9.35919 -4.22186 1.5521
29 1 -8.38128 -4.15473 0.932295
30 1 -7.42677 -3.92689 0.427896
31 1 -6.43496 -3.58814 -0.206903
32 1 -5.48078 -3.18798 -0.727125
33 1 -4.30232 -3.15774 -1.06092
34 1 -3.03868 -3.26366 -1.00335
35 1 -2.23235 -2.63417 -1.0353
36 1 -1.29553 -1.96166 -0.854013
37 1 -0.427192 -1.29182 -0.531764
38 1 0.709197 -0.885613 -0.0064292
39 1 1.64496 -0.844333 -0.539391
40 1 2.50014 -0.250467 -1.20836
41 1 3.475 0.259869 -1.69464
42 1 4.54552 0.0256209 -1.89932
43 1 5.52212 -0.430054 -1.7307
44 1 6.43483 -0.893428 -1.41848
45 1 7.42779 -1.31155 -0.947722
46 1 8.30471 -1.72831 -0.381799
47 1 9.34698 -2.06994 -0.0555249
48 1 10.1699 -2.3938 0.471878
49 1 11.2078 -2.82531 0.632154
50 1 12.2167 -3.32752 0.639415
51 1 13.1269 -3.92273 0.490803
52 1 14.0676 -4.17761 0.177074
53 1 15.1979 -3.93468 -0.162578
54 1 16.1738 -4.12857 -0.720792
55 1 17.0458 -4.59641 -1.34177
56 1 18.0846 -4.9858 -1.75098
57 1 19.0472 -5.24372 -2.18334
58 1 19.9152 -4.91151 -1.99454
59 1 20.9545 -4.47736 -1.98115
60 1 21.9251 -4.09998 -1.95256
61 1 22.9579 -3.70181 -1.93995
62 1 23.7503 -3.03685 -1.65691
63 1 24.4627 -2.60033 -0.964521
64 1 25.144 -2.36188 -0.314391
65 1 25.9102 -1.89882 0.517462
66 1 26.594 -1.42755 1.35315
67 1 27.3352 -1.19196 2.11859
68 1 28.3657 -0.787543 2.15396
69 1 29.4967 -0.791177 1.82657
70 1 30.614 -0.824521 2.01971
71 1 31.6229 -1.22904 2.38169
72 1 32.5497 -1.6729 2.68554
73 1 33.5379 -2.25762 3.07364
74 1 34.5961 -2.35473 3.53743
75 1 35.3791 -2.09064 4.02332
76 1 36.2491 -1.68279 4.42257
77 1 37.0715 -1.40995 5.13711
78 2 0.361287 -0.268583 0.860945
79 2 -0.00146292 0.0288165 1.8272
80 2 -0.475 0 2.85
ITEM: TIMESTEP
20000
ITEM: NUMBER OF ATOMS
80
ITEM: BOX BOUNDS mm mm mm
-3.8500000000000000e+01 3.8500000000000000e+01
-3.8500000000000000e+01 3.8500000000000000e+01
-3.8500000000000000e+01 3.8500000000000000e+01
ITEM: ATOMS id type x y z
1 1 -30.9261 -5.2003 -0.507395
2 1 -29.9876 -5.24051 -0.652711
3 1 -29.0978 -5.44602 -0.839921
4 1 -28.3683 -5.82101 -1.19965
5 1 -27.5284 -6.25387 -1.26102
6 1 -26.6109 -6.35485 -1.09089
7 1 -25.7844 -6.60341 -0.789514
8 1 -24.9166 -6.58688 -0.384269
9 1 -24.0772 -6.51715 0.0117544
10 1 -23.1904 -6.31617 0.346791
11 1 -22.3575 -6.01721 0.478847
12 1 -21.6253 -5.49288 0.708699
13 1 -20.8497 -5.17001 1.07915
14 1 -20.0576 -4.80978 1.42461
15 1 -19.1878 -4.42723 1.53225
16 1 -18.2814 -4.52183 1.67668
17 1 -17.3772 -4.71699 1.88016
18 1 -16.5123 -4.49413 1.97595
19 1 -15.5779 -4.29877 1.89499
20 1 -14.6933 -4.40857 1.58659
21 1 -13.7938 -4.43443 1.27079
22 1 -12.8764 -4.6549 0.915743
23 1 -12.0871 -4.72954 0.422676
24 1 -11.2566 -4.89692 -0.0463932
25 1 -10.4194 -4.58763 -0.331016
26 1 -9.58804 -4.28233 -0.358624
27 1 -8.67011 -4.08788 -0.267616
28 1 -7.76364 -3.89281 -0.252292
29 1 -6.78994 -3.97785 -0.104824
30 1 -5.85942 -4.01077 -0.192295
31 1 -4.90139 -3.81145 -0.247984
32 1 -4.07008 -3.46894 0.0200602
33 1 -3.4363 -2.75604 0.0492632
34 1 -2.57518 -2.40606 -0.0245204
35 1 -1.77255 -2.00977 0.160038
36 1 -0.948036 -1.50331 0.345787
37 1 -0.0424127 -1.30161 0.259935
38 1 0.742454 -1.19694 0.759661
39 1 1.66496 -1.13554 0.535013
40 1 2.58557 -1.13967 0.394818
41 1 3.59102 -1.08257 0.55978
42 1 4.51251 -1.25448 0.603285
43 1 5.40229 -1.57942 0.667696
44 1 6.28747 -1.81383 0.81458
45 1 7.22381 -1.78632 0.921064
46 1 8.08676 -1.49189 0.836269
47 1 8.99689 -1.37958 0.768151
48 1 9.94604 -1.40089 0.705384
49 1 10.8699 -1.40235 0.587742
50 1 11.7932 -1.69944 0.585094
51 1 12.7167 -1.88125 0.493079
52 1 13.6141 -2.03179 0.362035
53 1 14.459 -2.1276 -0.0304796
54 1 15.2776 -2.44664 -0.26834
55 1 16.1445 -2.63256 -0.590961
56 1 16.8983 -3.08364 -0.758436
57 1 17.3158 -3.81503 -1.19943
58 1 18.1323 -4.33486 -1.39658
59 1 18.7606 -4.99498 -1.14558
60 1 19.4681 -5.56894 -0.886266
61 1 20.1425 -6.19527 -1.01787
62 1 20.8641 -6.63691 -0.629284
63 1 21.6518 -6.88751 -0.158782
64 1 22.2754 -7.00927 0.555806
65 1 22.9776 -7.04862 1.18489
66 1 23.7137 -7.02253 1.78946
67 1 24.5385 -7.40188 2.0797
68 1 25.4313 -7.71118 2.15803
69 1 26.2564 -7.50551 2.52976
70 1 27.1893 -7.48211 2.80418
71 1 28.0925 -7.71566 2.93718
72 1 28.9318 -7.98839 3.20532
73 1 29.581 -8.42059 3.72469
74 1 30.2769 -8.81933 4.12244
75 1 30.998 -9.39554 3.88117
76 1 31.6403 -9.93237 3.6102
77 1 32.0924 -10.5984 3.08277
78 2 0.420305 -1.05464 1.64472
79 2 0.0828942 -0.534994 2.34916
80 2 -0.475 0 2.85
ITEM: TIMESTEP
30000
ITEM: NUMBER OF ATOMS
80
ITEM: BOX BOUNDS mm mm mm
-3.8500000000000000e+01 3.8500000000000000e+01
-3.8500000000000000e+01 3.8500000000000000e+01
-3.8500000000000000e+01 3.8500000000000000e+01
ITEM: ATOMS id type x y z
1 1 -28.9711 -3.10894 -7.4516
2 1 -28.0626 -3.33507 -7.10983
3 1 -27.1384 -3.59105 -7.03228
4 1 -26.4157 -4.2348 -7.00433
5 1 -25.8713 -4.89247 -6.67599
6 1 -25.1611 -5.4418 -6.45143
7 1 -24.2842 -5.72591 -6.14499
8 1 -23.5231 -5.96409 -5.61387
9 1 -22.7291 -5.82661 -5.13167
10 1 -21.9675 -5.61396 -4.61609
11 1 -21.139 -5.37973 -4.27421
12 1 -20.367 -4.89606 -3.96729
13 1 -19.8143 -4.37934 -3.32791
14 1 -19.0773 -4.01461 -2.91875
15 1 -18.5093 -3.22974 -2.86276
16 1 -17.8045 -2.58318 -2.91027
17 1 -16.9953 -2.05876 -2.74377
18 1 -16.1281 -1.74866 -2.62388
19 1 -15.337 -1.21629 -2.56251
20 1 -14.7826 -0.442705 -2.66818
21 1 -13.8553 -0.154917 -2.90178
22 1 -12.9375 -0.0356147 -2.95127
23 1 -12.0567 0.147414 -2.69999
24 1 -11.2507 -0.201052 -2.19129
25 1 -10.4246 -0.546366 -1.94298
26 1 -9.56685 -0.741033 -1.64919
27 1 -8.83225 -1.29389 -1.61404
28 1 -7.88679 -1.38448 -1.76157
29 1 -6.97595 -1.65752 -1.79036
30 1 -6.2127 -2.21965 -1.80735
31 1 -5.47729 -2.72536 -1.48286
32 1 -4.63978 -3.09676 -1.19978
33 1 -3.72748 -3.28295 -0.982682
34 1 -2.88527 -3.05063 -0.631059
35 1 -2.07211 -2.8502 -0.117119
36 1 -1.39722 -2.56347 0.448428
37 1 -0.7134 -2.47858 1.08518
38 1 0.0528558 -2.37964 1.61368
39 1 0.944555 -2.80984 1.68018
40 1 1.75958 -3.13609 1.3823
41 1 2.66755 -3.16679 1.2146
42 1 3.60085 -3.37969 0.889274
43 1 4.4769 -3.16074 0.596799
44 1 5.43689 -3.10602 0.379289
45 1 6.27022 -2.71318 0.340709
46 1 7.02252 -2.20854 0.337597
47 1 7.86471 -1.94984 0.555072
48 1 8.72197 -2.01981 0.314548
49 1 9.67608 -2.01357 0.333931
50 1 10.61 -1.86447 0.0499803
51 1 11.4882 -1.76974 -0.24581
52 1 12.3806 -1.68233 -0.601213
53 1 13.1114 -1.36301 -1.14584
54 1 13.9033 -0.99074 -1.42732
55 1 14.7857 -0.862545 -1.81677
56 1 15.6189 -0.774439 -2.23261
57 1 16.51 -0.995732 -2.59809
58 1 17.4056 -0.862709 -2.71184
59 1 18.3282 -0.87383 -2.64849
60 1 19.1225 -1.16607 -2.3132
61 1 20.0285 -1.37081 -2.01454
62 1 20.9313 -1.42589 -2.12378
63 1 21.8417 -1.52428 -1.8668
64 1 22.7215 -1.53792 -1.70385
65 1 23.6241 -1.70266 -1.65467
66 1 24.4453 -2.13114 -1.44349
67 1 25.2979 -2.48517 -1.22302
68 1 26.2196 -2.54457 -0.965548
69 1 26.9315 -2.67715 -0.41112
70 1 27.7664 -2.8145 -0.0505077
71 1 28.6574 -2.89193 0.141403
72 1 29.4569 -2.4216 0.234375
73 1 30.1298 -1.88475 -0.129805
74 1 31.0428 -1.7418 -0.385124
75 1 31.8214 -1.75603 -0.949203
76 1 32.5657 -1.866 -1.45746
77 1 33.4294 -1.99571 -1.82141
78 2 0.0618617 -1.63437 2.18813
79 2 -0.194648 -0.824099 2.51372
80 2 -0.475 0 2.85
ITEM: TIMESTEP
40000
ITEM: NUMBER OF ATOMS
80
ITEM: BOX BOUNDS mm mm mm
-3.8500000000000000e+01 3.8500000000000000e+01
-3.8500000000000000e+01 3.8500000000000000e+01
-3.8500000000000000e+01 3.8500000000000000e+01
ITEM: ATOMS id type x y z
1 1 -24.2603 -5.4154 -9.68152
2 1 -24.0024 -4.5339 -9.46768
3 1 -23.6361 -3.68566 -9.20844
4 1 -23.0183 -3.05625 -8.95307
5 1 -22.2168 -2.63081 -8.64638
6 1 -21.6382 -1.99826 -8.35594
7 1 -21.2007 -1.33024 -7.85779
8 1 -20.5226 -0.879108 -7.39998
9 1 -20.0636 -0.334595 -6.77181
10 1 -19.6916 0.296076 -6.1803
11 1 -18.9644 0.591405 -5.6054
12 1 -18.6929 1.30049 -5.12626
13 1 -18.2349 2.0045 -4.67535
14 1 -17.4907 2.49363 -4.37838
15 1 -16.7349 2.95361 -4.23978
16 1 -16.0347 3.52527 -3.9935
17 1 -15.4289 4.24003 -3.82188
18 1 -14.8504 4.98485 -3.68127
19 1 -14.508 5.85291 -3.49356
20 1 -13.9478 6.58677 -3.31945
21 1 -13.3279 7.16947 -2.9132
22 1 -12.5275 7.62745 -2.56459
23 1 -11.5639 7.68193 -2.39369
24 1 -10.6659 7.44477 -2.31002
25 1 -9.80049 7.1887 -2.03429
26 1 -8.86454 6.98202 -1.97716
27 1 -7.95563 6.60986 -2.0559
28 1 -7.12084 6.2571 -2.03263
29 1 -6.45443 5.62691 -1.72786
30 1 -5.8398 5.02106 -1.24728
31 1 -5.44953 4.30853 -0.836212
32 1 -5.0663 3.49929 -0.585877
33 1 -4.72148 2.63052 -0.663497
34 1 -4.15419 1.84166 -0.6107
35 1 -3.72978 1.10649 -0.242005
36 1 -3.1462 0.487123 0.106362
37 1 -2.42916 0.0137405 0.549105
38 1 -1.54539 -0.390622 0.49225
39 1 -1.33426 -0.670243 -0.361811
40 1 -1.03433 -0.856587 -1.24324
41 1 -0.499544 -1.06597 -1.95788
42 1 0.299076 -1.13485 -2.4691
43 1 1.13507 -1.39448 -2.82088
44 1 1.96265 -1.60611 -3.2426
45 1 2.81364 -1.60404 -3.68445
46 1 3.65935 -1.79208 -4.08761
47 1 4.55303 -1.98412 -4.26983
48 1 5.34423 -2.40539 -4.55895
49 1 6.20878 -2.52415 -4.29558
50 1 7.10826 -2.3364 -3.99422
51 1 7.82229 -1.9626 -3.5039
52 1 8.76221 -1.84711 -3.45803
53 1 9.65245 -1.61579 -3.34073
54 1 10.4388 -1.07942 -3.28557
55 1 11.3281 -0.883277 -3.16489
56 1 12.1641 -0.610343 -2.84844
57 1 13.0891 -0.380442 -2.82596
58 1 13.9951 -0.281287 -2.96111
59 1 14.9274 -0.42261 -3.2731
60 1 15.8561 -0.576202 -3.3126
61 1 16.766 -0.734113 -3.49243
62 1 17.6362 -0.716294 -3.75715
63 1 18.5793 -0.843036 -3.84773
64 1 19.5399 -0.888686 -3.85851
65 1 20.4507 -0.776757 -3.8012
66 1 21.3366 -0.601054 -3.95736
67 1 22.2531 -0.308284 -4.06754
68 1 23.1121 -0.239354 -4.39719
69 1 23.99 0.111445 -4.46076
70 1 24.8146 0.512346 -4.5604
71 1 25.731 0.667298 -4.91396
72 1 26.5419 0.836897 -5.33396
73 1 27.5216 0.679885 -5.41865
74 1 28.4656 0.835705 -5.31711
75 1 29.3287 1.00644 -5.08371
76 1 30.1954 1.21911 -4.87676
77 1 31.16 1.09693 -4.86752
78 2 -1.17403 -0.62001 1.28115
79 2 -0.752996 -0.519107 2.1618
80 2 -0.475 0 2.85
ITEM: TIMESTEP
50000
ITEM: NUMBER OF ATOMS
80
ITEM: BOX BOUNDS mm mm mm
-3.8500000000000000e+01 3.8500000000000000e+01
-3.8500000000000000e+01 3.8500000000000000e+01
-3.8500000000000000e+01 3.8500000000000000e+01
ITEM: ATOMS id type x y z
1 1 -27.8622 0.244121 -7.98051
2 1 -27.3617 0.69558 -8.5635
3 1 -26.8665 1.13359 -9.26332
4 1 -26.1495 1.52673 -9.71297
5 1 -25.2872 1.75028 -9.96929
6 1 -24.6914 2.35368 -10.4255
7 1 -23.7948 2.54413 -10.6506
8 1 -22.8459 2.52508 -10.884
9 1 -21.8928 2.55801 -11.0351
10 1 -20.9487 2.58741 -11.0475
11 1 -19.9897 2.33097 -11.0734
12 1 -19.0664 2.20986 -11.1935
13 1 -18.1099 2.26407 -11.2283
14 1 -17.3952 2.83736 -11.0581
15 1 -16.8561 3.46112 -10.5497
16 1 -16.2555 3.95056 -10.0385
17 1 -15.8018 4.47145 -9.46233
18 1 -15.0428 4.8875 -9.09056
19 1 -14.3404 5.25685 -8.64681
20 1 -13.6259 5.56789 -8.14939
21 1 -12.9289 5.82201 -7.54892
22 1 -12.2265 6.03931 -6.87223
23 1 -11.5323 5.76175 -6.31708
24 1 -11.0394 5.07872 -5.86174
25 1 -10.3547 4.53515 -5.4552
26 1 -9.68912 4.19711 -4.89834
27 1 -8.98449 4.07189 -4.2995
28 1 -8.2429 4.16625 -3.64804
29 1 -7.34639 4.00294 -3.49135
30 1 -6.63338 3.80139 -2.95646
31 1 -6.1244 3.39748 -2.31746
32 1 -5.72234 3.41891 -1.44404
33 1 -5.39488 2.9056 -0.693439
34 1 -4.78989 2.51974 -0.100543
35 1 -4.48546 1.92788 0.585299
36 1 -3.89976 1.28722 0.856865
37 1 -3.09612 0.858565 0.742055
38 1 -2.14548 0.947537 0.777587
39 1 -1.46535 1.21198 0.195053
40 1 -0.911566 1.58968 -0.513356
41 1 -0.493818 2.18205 -1.08765
42 1 -0.153472 2.80638 -1.75317
43 1 0.464728 3.41126 -2.12976
44 1 1.07776 3.84118 -2.70034
45 1 1.80506 4.35664 -3.01422
46 1 2.72298 4.60315 -3.27585
47 1 3.55939 4.73612 -3.69629
48 1 4.41201 4.4986 -3.7908
49 1 4.94541 3.74687 -3.80341
50 1 5.65403 3.10628 -3.89218
51 1 6.07893 2.3194 -3.86791
52 1 6.56152 1.52631 -3.88541
53 1 7.29518 0.926456 -3.9216
54 1 7.97487 0.233839 -4.05033
55 1 8.47725 -0.549069 -4.12037
56 1 9.16673 -1.25134 -4.28634
57 1 9.85876 -1.82771 -4.57321
58 1 10.5139 -2.40654 -4.8959
59 1 11.3209 -2.63365 -5.23325
60 1 12.2233 -2.95478 -5.44756
61 1 13.1267 -3.09967 -5.51242
62 1 14.0459 -3.24972 -5.53152
63 1 14.9776 -2.98908 -5.43769
64 1 15.9202 -2.79393 -5.51535
65 1 16.8223 -2.75122 -5.61547
66 1 17.7057 -2.60033 -6.01873
67 1 18.2677 -2.34493 -6.74388
68 1 18.738 -1.68502 -7.11954
69 1 19.3612 -1.01385 -7.25471
70 1 20.1644 -0.540903 -7.04331
71 1 21.0151 -0.209094 -7.1671
72 1 21.8833 0.271084 -7.28944
73 1 22.6845 0.691218 -7.56739
74 1 23.3551 1.12012 -7.96631
75 1 24.1336 1.48741 -8.24554
76 1 25.0767 1.50693 -8.17051
77 1 25.966 1.63469 -8.28825
78 2 -1.37054 0.811061 1.35919
79 2 -0.879063 0.46719 2.12492
80 2 -0.475 0 2.85
ITEM: TIMESTEP
60000
ITEM: NUMBER OF ATOMS
80
ITEM: BOX BOUNDS mm mm mm
-3.8500000000000000e+01 3.8500000000000000e+01
-3.8500000000000000e+01 3.8500000000000000e+01
-3.8500000000000000e+01 3.8500000000000000e+01
ITEM: ATOMS id type x y z
1 1 -20.9674 -0.207364 -15.7931
2 1 -20.1856 0.130503 -15.5163
3 1 -19.3229 0.264258 -15.2113
4 1 -18.6846 1.06024 -15.2507
5 1 -18.3211 1.96479 -15.3011
6 1 -17.868 2.75161 -15.165
7 1 -17.353 3.52782 -14.914
8 1 -16.7649 4.19718 -14.6323
9 1 -16.195 4.71679 -14.2057
10 1 -15.7282 5.28166 -13.6809
11 1 -15.2374 5.58309 -12.9101
12 1 -14.5545 5.46453 -12.2579
13 1 -13.7141 5.40702 -11.8621
14 1 -13.136 4.94126 -11.2605
15 1 -12.3538 4.9457 -10.6729
16 1 -11.5693 4.50857 -10.4014
17 1 -11.239 4.30489 -9.5313
18 1 -10.9172 4.30324 -8.63352
19 1 -10.4546 4.30857 -7.80845
20 1 -9.97255 4.55581 -7.03673
21 1 -9.49477 4.76224 -6.27828
22 1 -9.16648 4.53469 -5.44128
23 1 -8.54556 4.53481 -4.80798
24 1 -8.08776 4.87721 -4.03383
25 1 -8.01675 5.38612 -3.24808
26 1 -7.55058 5.92456 -2.57269
27 1 -7.01834 6.47895 -2.04606
28 1 -6.42687 7.02437 -1.56341
29 1 -5.7362 6.88357 -1.01345
30 1 -5.11815 6.72991 -0.308447
31 1 -4.60472 6.10225 0.170418
32 1 -3.85591 5.60863 0.488607
33 1 -3.09047 5.15946 0.683036
34 1 -2.31471 4.66525 0.675266
35 1 -1.50268 4.22769 0.682314
36 1 -0.946726 3.43416 0.70066
37 1 -0.810523 2.47224 0.624331
38 1 -0.596901 1.55252 0.606923
39 1 -0.487816 1.19176 -0.282998
40 1 -0.431205 0.543847 -0.975
41 1 -0.445789 0.542344 -1.92916
42 1 -0.423926 0.723087 -2.8908
43 1 -0.316151 0.811205 -3.82793
44 1 0.216268 1.04692 -4.50483
45 1 1.05822 1.20067 -4.90651
46 1 1.72009 0.975223 -5.52939
47 1 2.42848 0.744899 -6.1493
48 1 3.20386 0.569397 -6.73301
49 1 3.83625 0.526073 -7.42045
50 1 4.45989 1.00262 -7.94253
51 1 5.16872 1.33492 -8.48257
52 1 5.93748 1.65165 -8.8821
53 1 6.8815 1.7062 -8.74618
54 1 7.80548 1.55682 -8.58062
55 1 8.73036 1.48655 -8.41189
56 1 9.71553 1.55536 -8.38138
57 1 10.6853 1.69131 -8.40359
58 1 11.6176 1.43473 -8.39812
59 1 12.3718 0.837682 -8.46455
60 1 13.1917 0.484181 -8.33698
61 1 14.1169 0.135577 -8.40953
62 1 14.9221 -0.212084 -8.17391
63 1 15.6544 -0.665582 -7.74731
64 1 16.55 -0.603715 -7.39728
65 1 17.3604 -0.372891 -7.00115
66 1 18.1526 -0.0751471 -6.63141
67 1 19.0365 0.0113652 -6.47552
68 1 19.949 0.0673528 -6.31433
69 1 20.5236 -0.424314 -5.79632
70 1 20.9938 -0.851286 -5.14524
71 1 20.9069 -1.66237 -4.74193
72 1 20.8112 -2.38091 -4.14183
73 1 20.8672 -3.27891 -3.98648
74 1 21.1368 -4.18505 -4.2523
75 1 21.169 -5.13009 -4.63058
76 1 21.1621 -6.00927 -4.93172
77 1 21.4293 -6.86576 -5.24328
78 2 -0.310871 1.10686 1.38187
79 2 -0.384514 0.673094 2.23185
80 2 -0.475 0 2.85
ITEM: TIMESTEP
70000
ITEM: NUMBER OF ATOMS
80
ITEM: BOX BOUNDS mm mm mm
-3.8500000000000000e+01 3.8500000000000000e+01
-3.8500000000000000e+01 3.8500000000000000e+01
-3.8500000000000000e+01 3.8500000000000000e+01
ITEM: ATOMS id type x y z
1 1 -19.7719 5.48569 -4.74404
2 1 -18.931 5.59175 -5.18651
3 1 -18.039 5.72004 -5.38101
4 1 -17.1517 5.81543 -5.66166
5 1 -16.3749 5.92137 -6.16999
6 1 -15.4529 5.84593 -6.37028
7 1 -14.584 5.56229 -6.52338
8 1 -13.689 5.17384 -6.67642
9 1 -12.7339 5.13725 -6.9461
10 1 -11.8407 5.13396 -7.1986
11 1 -10.9347 5.04574 -7.36009
12 1 -10.0165 5.12272 -7.51079
13 1 -9.14699 5.20376 -7.74427
14 1 -8.2055 5.2078 -7.91036
15 1 -7.39707 5.51605 -8.27622
16 1 -6.52121 5.84392 -8.0862
17 1 -5.73494 6.27904 -7.79272
18 1 -5.03233 6.75855 -7.31922
19 1 -4.39896 7.42558 -7.08072
20 1 -3.82085 8.1227 -6.75929
21 1 -3.38928 8.71772 -6.19026
22 1 -2.95745 9.25008 -5.56544
23 1 -2.48527 9.59876 -4.8458
24 1 -1.87231 9.44651 -4.12457
25 1 -1.75929 9.07602 -3.28516
26 1 -1.78627 8.57147 -2.52568
27 1 -1.99355 7.74498 -2.17808
28 1 -2.01848 6.86514 -1.84082
29 1 -2.20449 5.94882 -1.67595
30 1 -2.47164 5.11559 -1.40705
31 1 -2.55215 4.18804 -1.29141
32 1 -2.49323 3.40798 -0.849007
33 1 -2.24865 2.55586 -0.421721
34 1 -2.09013 1.87357 0.2587
35 1 -1.39229 1.34964 0.561601
36 1 -0.502145 1.00906 0.66593
37 1 0.380045 0.76515 0.700798
38 1 1.24919 0.601523 0.807594
39 1 1.98219 0.816606 0.191623
40 1 2.23819 1.14057 -0.651817
41 1 2.25876 1.64938 -1.44591
42 1 2.36504 2.28744 -2.08605
43 1 2.5719 2.88616 -2.7588
44 1 2.74948 3.34189 -3.58862
45 1 3.1366 3.90448 -4.347
46 1 3.88811 4.37699 -4.73093
47 1 4.69594 4.81134 -4.93318
48 1 5.62575 5.00633 -4.92817
49 1 6.54287 5.0053 -5.03853
50 1 7.47454 5.1242 -5.03766
51 1 8.41033 5.14704 -4.86776
52 1 9.38027 5.04279 -4.62288
53 1 10.0058 4.57369 -4.13192
54 1 10.8316 4.43885 -3.69018
55 1 11.5727 4.22538 -3.13873
56 1 12.065 3.56685 -2.65551
57 1 12.848 3.22985 -2.18782
58 1 13.5927 2.98074 -1.68612
59 1 14.3403 2.442 -1.50692
60 1 15.2098 2.18881 -1.24737
61 1 16.0265 1.77126 -1.27581
62 1 16.9435 1.60624 -1.27496
63 1 17.8289 1.56456 -1.52835
64 1 18.7616 1.46249 -1.59772
65 1 19.5859 1.0751 -1.73649
66 1 20.3277 0.523533 -1.85723
67 1 20.957 -0.130744 -1.95017
68 1 21.401 -0.946279 -2.05382
69 1 21.5638 -1.87352 -1.99224
70 1 21.4782 -2.80786 -2.07867
71 1 21.3012 -3.72834 -1.82804
72 1 21.0545 -4.55779 -1.52622
73 1 21.1607 -5.32078 -1.00399
74 1 21.6689 -5.94563 -0.502641
75 1 22.2153 -6.45161 0.0949526
76 1 22.7948 -6.97639 0.568365
77 1 23.4549 -7.30322 1.15593
78 2 0.825871 0.400188 1.58393
79 2 0.231764 0.364141 2.37361
80 2 -0.475 0 2.85
ITEM: TIMESTEP
80000
ITEM: NUMBER OF ATOMS
80
ITEM: BOX BOUNDS mm mm mm
-3.8500000000000000e+01 3.8500000000000000e+01
-3.8500000000000000e+01 3.8500000000000000e+01
-3.8500000000000000e+01 3.8500000000000000e+01
ITEM: ATOMS id type x y z
1 1 -10.4944 -0.84581 -8.06878
2 1 -10.1492 -0.361697 -7.29796
3 1 -9.45616 0.155086 -6.86338
4 1 -8.95389 0.756917 -6.30746
5 1 -8.71099 1.52561 -5.81049
6 1 -8.75575 2.25921 -5.2566
7 1 -8.66812 3.10563 -4.82226
8 1 -8.52567 4.03067 -4.51205
9 1 -8.50528 4.95524 -4.85605
10 1 -8.75775 5.86217 -5.06005
11 1 -8.92174 6.76262 -4.96399
12 1 -8.81688 7.66094 -4.75396
13 1 -8.46344 8.53402 -4.89624
14 1 -8.24248 9.43345 -4.69713
15 1 -8.34412 10.1819 -4.1454
16 1 -8.44223 10.9419 -3.60894
17 1 -8.52923 11.4432 -2.78535
18 1 -8.79514 12.0051 -2.13552
19 1 -9.11698 12.247 -1.29069
20 1 -9.35951 12.2801 -0.375157
21 1 -9.59099 11.8687 0.425629
22 1 -9.48696 11.3444 1.20242
23 1 -9.01387 11.0018 1.97419
24 1 -8.53597 10.9129 2.76746
25 1 -7.82648 10.5453 3.37381
26 1 -7.33429 9.87645 3.77304
27 1 -6.83222 9.05789 3.99359
28 1 -6.33585 8.3487 4.2992
29 1 -5.55026 7.8103 4.21974
30 1 -4.84503 7.18188 4.12294
31 1 -4.37471 6.45637 3.70529
32 1 -3.79375 5.88692 3.32378
33 1 -3.417 5.08255 2.97412
34 1 -3.03711 4.39434 2.40404
35 1 -2.90225 3.58124 1.84465
36 1 -2.70103 2.8313 1.35144
37 1 -2.20084 2.02424 1.35034
38 1 -1.39917 1.5988 1.1593
39 1 -0.76827 1.36899 0.50394
40 1 -0.0875687 1.31189 -0.089726
41 1 0.316445 1.30852 -0.931756
42 1 0.902372 1.68182 -1.64579
43 1 1.41036 2.38246 -2.03065
44 1 1.86282 3.20184 -2.29563
45 1 2.2312 4.03018 -2.50935
46 1 2.79231 4.74481 -2.68063
47 1 3.63275 5.23392 -2.8393
48 1 4.47342 5.55245 -3.06402
49 1 5.15293 6.17088 -3.21427
50 1 5.96845 6.44088 -3.54612
51 1 6.78116 6.49189 -4.0246
52 1 7.74329 6.60435 -4.16837
53 1 8.68022 6.88174 -4.14805
54 1 9.60579 7.14369 -4.15693
55 1 10.5356 6.97913 -4.1936
56 1 11.4342 6.58383 -4.12613
57 1 12.2333 6.27731 -3.90778
58 1 13.2 6.07109 -3.58579
59 1 14.066 5.94834 -3.30463
60 1 14.7275 5.43091 -2.8442
61 1 15.3466 4.94583 -2.38392
62 1 15.9212 4.35754 -2.0391
63 1 16.2415 3.54172 -1.64168
64 1 16.4545 2.84588 -1.02872
65 1 16.8998 2.1186 -0.628269
66 1 17.2598 1.3653 -0.26427
67 1 17.3773 0.72473 0.425748
68 1 17.2039 0.0939658 1.12942
69 1 17.6177 -0.71148 1.43418
70 1 18.1879 -1.47126 1.3988
71 1 18.3722 -2.41286 1.34597
72 1 18.4611 -3.36482 1.39988
73 1 18.5342 -4.31413 1.44872
74 1 18.5006 -5.26233 1.58061
75 1 18.3354 -6.18898 1.84399
76 1 18.3506 -7.05598 2.18483
77 1 18.5134 -7.97993 2.19591
78 2 -0.812041 1.41946 1.91401
79 2 -0.492135 0.838065 2.49087
80 2 -0.475 0 2.85
ITEM: TIMESTEP
90000
ITEM: NUMBER OF ATOMS
80
ITEM: BOX BOUNDS mm mm mm
-3.8500000000000000e+01 3.8500000000000000e+01
-3.8500000000000000e+01 3.8500000000000000e+01
-3.8500000000000000e+01 3.8500000000000000e+01
ITEM: ATOMS id type x y z
1 1 -16.7631 2.39109 -11.4109
2 1 -16.2025 2.43197 -10.6649
3 1 -15.3871 2.55142 -10.2541
4 1 -14.4874 2.59822 -10.0417
5 1 -13.5775 2.49971 -9.81895
6 1 -12.8258 2.82014 -9.34358
7 1 -12.0558 2.77129 -8.77146
8 1 -11.4917 2.46929 -8.09107
9 1 -11.0217 2.15646 -7.28746
10 1 -10.322 2.35954 -6.72724
11 1 -9.8301 3.07846 -6.2984
12 1 -9.49551 3.87411 -5.88625
13 1 -9.17352 4.55344 -5.31109
14 1 -8.86681 5.22986 -4.70303
15 1 -8.48382 5.7523 -4.01242
16 1 -8.40163 6.19995 -3.19831
17 1 -8.35072 6.46989 -2.29579
18 1 -8.03659 6.79415 -1.45537
19 1 -7.8824 7.20867 -0.624086
20 1 -7.58594 7.73253 0.099929
21 1 -7.31355 8.50464 0.570496
22 1 -6.71121 8.98227 1.11721
23 1 -6.27304 9.61501 1.71458
24 1 -5.8578 9.8004 2.5116
25 1 -5.6335 9.57167 3.39423
26 1 -5.03096 9.53986 4.04485
27 1 -4.20641 9.38517 4.36192
28 1 -3.57287 8.86341 4.83345
29 1 -3.07915 8.00908 5.15012
30 1 -2.87058 7.10913 5.41313
31 1 -2.87532 6.17324 5.59015
32 1 -2.6248 5.33208 5.27876
33 1 -2.32991 4.73415 4.68006
34 1 -2.13277 4.47314 3.85293
35 1 -1.47252 4.25999 3.19313
36 1 -1.09526 3.71363 2.56266
37 1 -0.749831 3.05524 1.89115
38 1 -0.0809628 2.41403 1.62587
39 1 0.682094 2.83647 1.19218
40 1 1.2081 3.41844 0.667191
41 1 1.62948 3.9574 0.0416254
42 1 2.18423 4.05204 -0.690433
43 1 2.65668 4.29146 -1.4672
44 1 3.02643 4.66125 -2.25223
45 1 3.61828 5.17474 -2.72668
46 1 4.1964 5.42049 -3.42969
47 1 4.60241 5.48564 -4.25338
48 1 5.41137 5.70335 -4.8404
49 1 6.06595 6.1233 -5.38037
50 1 6.74499 6.7152 -5.68914
51 1 7.40756 7.25738 -6.08512
52 1 8.19635 7.68865 -5.81441
53 1 8.92415 8.14264 -5.52255
54 1 9.63895 8.49573 -5.08159
55 1 10.2262 8.60877 -4.29794
56 1 10.9694 8.71187 -3.63229
57 1 11.5608 8.91951 -3.00366
58 1 12.2119 9.20997 -2.43075
59 1 12.8274 9.38747 -1.80902
60 1 13.6229 9.50464 -1.3026
61 1 13.9897 9.48276 -0.418204
62 1 14.2836 9.55545 0.538974
63 1 14.7167 9.36835 1.31997
64 1 15.143 8.91505 1.97023
65 1 15.3923 8.23589 2.62288
66 1 15.3441 7.34013 2.9932
67 1 15.686 6.47972 3.16537
68 1 16.0286 5.65075 3.41713
69 1 16.4009 4.80702 3.75281
70 1 16.8151 3.95527 3.91467
71 1 17.1198 3.08233 3.667
72 1 17.3419 2.11763 3.41764
73 1 17.9093 1.39211 3.32083
74 1 18.0158 0.459651 3.26922
75 1 18.2583 -0.425334 3.34281
76 1 18.6852 -1.25409 3.48675
77 1 18.6154 -2.24508 3.60347
78 2 -0.240434 1.53097 1.9438
79 2 -0.481395 0.814738 2.43971
80 2 -0.475 0 2.85
ITEM: TIMESTEP
100000
ITEM: NUMBER OF ATOMS
80
ITEM: BOX BOUNDS mm mm mm
-3.8500000000000000e+01 3.8500000000000000e+01
-3.8500000000000000e+01 3.8500000000000000e+01
-3.8500000000000000e+01 3.8500000000000000e+01
ITEM: ATOMS id type x y z
1 1 -15.3188 4.63928 -13.4471
2 1 -14.8862 4.3708 -12.6832
3 1 -14.4565 4.33063 -11.8995
4 1 -14.1055 4.40349 -11.048
5 1 -13.7553 4.70849 -10.2668
6 1 -13.3093 4.42038 -9.48371
7 1 -12.6722 4.34437 -8.79397
8 1 -12.248 4.23893 -7.92713
9 1 -11.7984 3.8198 -7.22323
10 1 -11.5027 3.51195 -6.39925
11 1 -11.2071 3.21518 -5.55246
12 1 -11.1162 2.77295 -4.73845
13 1 -10.9799 2.33234 -3.88875
14 1 -10.9013 2.20169 -2.95098
15 1 -10.6975 2.08076 -2.04088
16 1 -10.6753 2.46116 -1.20807
17 1 -10.7028 3.33105 -0.807537
18 1 -10.4712 4.2206 -0.507388
19 1 -10.2033 5.05248 -0.213366
20 1 -10.037 5.74855 0.439764
21 1 -9.68542 6.29833 1.20655
22 1 -9.15377 6.78018 1.85741
23 1 -8.4701 7.30371 2.27482
24 1 -7.67658 7.68999 2.61021
25 1 -6.77578 7.91156 2.68959
26 1 -5.82965 7.93011 2.52899
27 1 -4.89991 7.93798 2.24047
28 1 -4.02886 8.18231 1.93866
29 1 -3.48704 8.2177 1.12082
30 1 -2.95342 7.97251 0.418934
31 1 -2.45759 7.37317 -0.046691
32 1 -1.89801 6.65965 -0.201066
33 1 -1.586 5.77106 -0.154812
34 1 -1.18025 4.97411 -0.106171
35 1 -0.783873 4.0908 -0.044453
36 1 -0.395224 3.36064 0.455165
37 1 0.112898 2.77027 0.940059
38 1 0.5908 2.07782 1.37074
39 1 1.41833 1.91231 0.868891
40 1 2.1212 1.6401 0.294527
41 1 2.70103 1.2289 -0.294274
42 1 3.55845 1.099 -0.568896
43 1 4.22609 1.04135 -1.21473
44 1 4.84373 1.51356 -1.86039
45 1 5.66063 1.61559 -2.33137
46 1 6.2777 2.05899 -2.91797
47 1 7.10375 2.50595 -3.25767
48 1 7.63694 3.16221 -3.5967
49 1 8.35196 3.70675 -3.91646
50 1 9.11186 4.25148 -4.06091
51 1 9.78908 4.80904 -3.85066
52 1 10.0927 5.616 -3.44517
53 1 10.551 6.36654 -3.23666
54 1 10.7796 7.21936 -2.86554
55 1 10.893 8.02897 -2.39937
56 1 10.9251 8.82679 -1.88113
57 1 11.3535 9.58351 -1.43721
58 1 11.8863 10.2248 -0.913208
59 1 12.4179 10.7239 -0.315712
60 1 13.0589 11.3523 -0.108844
61 1 13.9885 11.6058 -0.103873
62 1 14.7862 11.3617 0.291404
63 1 15.1727 10.8845 1.04763
64 1 15.6499 10.5354 1.80279
65 1 16.2435 10.3299 2.47731
66 1 16.9059 10.013 3.08059
67 1 16.9848 9.45447 3.81836
68 1 16.9002 8.60649 4.25946
69 1 16.9933 7.70102 4.28799
70 1 17.0367 6.7241 4.36019
71 1 17.1014 5.77115 4.11642
72 1 16.8916 4.82463 4.15915
73 1 16.6157 3.96389 4.33343
74 1 16.1661 3.15886 4.56048
75 1 15.9593 2.27357 4.86851
76 1 15.6398 1.36083 4.77507
77 1 15.3547 0.46488 4.48297
78 2 0.381246 1.32753 1.88327
79 2 -0.0545944 0.563953 2.19891
80 2 -0.475 0 2.85
ITEM: TIMESTEP
110000
ITEM: NUMBER OF ATOMS
80
ITEM: BOX BOUNDS mm mm mm
-3.8500000000000000e+01 3.8500000000000000e+01
-3.8500000000000000e+01 3.8500000000000000e+01
-3.8500000000000000e+01 3.8500000000000000e+01
ITEM: ATOMS id type x y z
1 1 -13.3382 5.09247 -12.1956
2 1 -13.6081 5.09527 -11.3105
3 1 -13.8124 4.9103 -10.4202
4 1 -13.4413 4.69581 -9.58276
5 1 -12.8085 4.52902 -8.79775
6 1 -11.9675 4.33712 -8.38162
7 1 -11.6107 3.84491 -7.64627
8 1 -10.9031 3.65101 -7.06067
9 1 -10.328 3.29058 -6.36068
10 1 -9.70792 3.06745 -5.7099
11 1 -9.19981 3.15308 -4.89958
12 1 -8.58685 2.98669 -4.17489
13 1 -8.19667 3.38262 -3.41807
14 1 -8.04582 3.99128 -2.71434
15 1 -7.7341 4.63971 -2.09966
16 1 -7.19267 5.27983 -1.70591
17 1 -6.73499 5.93074 -1.28893
18 1 -6.38554 6.79716 -0.966288
19 1 -6.23079 7.50631 -0.387899
20 1 -6.02555 8.23071 0.217618
21 1 -5.42775 8.8755 0.533316
22 1 -4.81419 9.55677 0.794972
23 1 -4.15097 9.97961 1.38246
24 1 -3.25177 10.1359 1.65746
25 1 -2.38709 10.5132 1.85914
26 1 -1.54741 10.5797 2.36214
27 1 -0.638995 10.5653 2.48613
28 1 0.230112 10.2309 2.51675
29 1 0.863392 9.66484 2.8741
30 1 1.32926 8.94666 3.26865
31 1 1.73104 8.13347 3.0798
32 1 2.11043 7.22893 2.9837
33 1 2.35446 6.30304 2.95925
34 1 2.64928 5.35151 2.9348
35 1 2.31639 4.4799 2.87391
36 1 2.06945 3.57983 3.24017
37 1 1.83956 2.72475 3.1261
38 1 1.47502 2.01605 2.69362
39 1 1.569 2.062 1.76619
40 1 1.41389 2.48343 0.965441
41 1 1.55155 2.89137 0.115354
42 1 1.95194 3.30425 -0.639445
43 1 2.38078 3.9031 -1.24534
44 1 2.85973 4.39486 -1.88369
45 1 3.32045 4.93236 -2.57508
46 1 3.22892 5.57389 -3.28267
47 1 3.31154 6.28824 -3.94497
48 1 3.32853 7.22017 -4.23839