ITEM: TIMESTEP
0
ITEM: NUMBER OF ATOMS
55
ITEM: BOX BOUNDS mm mm mm
-2.5000000000000000e+01 2.5000000000000000e+01
-2.5000000000000000e+01 2.5000000000000000e+01
-2.5000000000000000e+01 2.5000000000000000e+01
ITEM: ATOMS id type x y z
1 1 -23.75 0 19.25
2 1 -22.8 0 19.25
3 1 -21.85 0 19.25
4 1 -20.9 0 19.25
5 1 -19.95 0 19.25
6 1 -19 0 19.25
7 1 -18.05 0 19.25
8 1 -17.1 0 19.25
9 1 -16.15 0 19.25
10 1 -15.2 0 19.25
11 1 -14.25 0 19.25
12 1 -13.3 0 19.25
13 1 -12.35 0 19.25
14 1 -11.4 0 19.25
15 1 -10.45 0 19.25
16 1 -9.5 0 19.25
17 1 -8.55 0 19.25
18 1 -7.6 0 19.25
19 1 -6.65 0 19.25
20 1 -5.7 0 19.25
21 1 -4.75 0 19.25
22 1 -3.8 0 19.25
23 1 -2.85 0 19.25
24 1 -1.9 0 19.25
25 1 -0.95 0 19.25
26 1 0 0 19.25
27 1 0.95 0 19.25
28 1 1.9 0 19.25
29 1 2.85 0 19.25
30 1 3.8 0 19.25
31 1 4.75 0 19.25
32 1 5.7 0 19.25
33 1 6.65 0 19.25
34 1 7.6 0 19.25
35 1 8.55 0 19.25
36 1 9.5 0 19.25
37 1 10.45 0 19.25
38 1 11.4 0 19.25
39 1 12.35 0 19.25
40 1 13.3 0 19.25
41 1 14.25 0 19.25
42 1 15.2 0 19.25
43 1 16.15 0 19.25
44 1 17.1 0 19.25
45 1 18.05 0 19.25
46 1 19 0 19.25
47 1 19.95 0 19.25
48 1 20.9 0 19.25
49 1 21.85 0 19.25
50 1 22.8 0 19.25
51 2 0 0 20.2
52 2 0 0 21.15
53 2 0 0 22.1
54 2 0 0 23.05
55 2 0 0 24
ITEM: TIMESTEP
10000
ITEM: NUMBER OF ATOMS
55
ITEM: BOX BOUNDS mm mm mm
-2.5000000000000000e+01 2.5000000000000000e+01
-2.5000000000000000e+01 2.5000000000000000e+01
-2.5000000000000000e+01 2.5000000000000000e+01
ITEM: ATOMS id type x y z
1 1 -5.38124 0.864266 20.7281
2 1 -5.40715 0.67558 19.6558
3 1 -4.37888 0.368776 19.6963
4 1 -4.55095 0.848294 18.5058
5 1 -3.85983 1.52702 19.0068
6 1 -3.94613 1.33256 17.995
7 1 -4.46664 2.05279 18.1156
8 1 -3.61436 1.37875 17.862
9 1 -3.03529 1.17219 18.7917
10 1 -2.18449 1.05414 19.4797
11 1 -2.17689 1.74645 18.6404
12 1 -1.55135 2.36376 19.2928
13 1 -0.607049 2.68636 19.8138
14 1 -1.15465 2.13122 20.4225
15 1 -1.42539 2.32409 19.4192
16 1 -0.812585 2.96445 18.7799
17 1 -0.0646618 3.35488 19.4846
18 1 -0.243318 4.35765 19.7713
19 1 -0.214085 3.36523 20.1586
20 1 0.289306 2.53645 20.7798
21 1 0.12995 1.8409 21.7713
22 1 0.360583 2.16761 20.829
23 1 0.440735 1.14283 21.2734
24 1 1.32699 1.58479 21.1162
25 1 1.65403 0.779569 20.3052
26 1 1.58751 -0.13746 20.9806
27 1 2.47677 -0.728214 20.8473
28 1 3.38461 -0.358554 20.4567
29 1 4.29585 -0.105241 19.8683
30 1 5.47679 0.140106 19.9538
31 1 5.75888 1.17242 19.892
32 1 6.49484 0.791333 20.6877
33 1 6.96365 -0.0751278 19.9896
34 1 7.74881 0.469901 20.6743
35 1 7.19496 0.578382 21.5391
36 1 7.21335 0.202272 20.5916
37 1 7.21771 0.10934 19.5464
38 1 8.31379 -0.177534 19.3169
39 1 8.38178 -1.20566 19.4235
40 1 9.45342 -0.995393 19.2909
41 1 8.99997 -1.34782 20.1248
42 1 9.93288 -1.89278 19.9545
43 1 10.3629 -2.19406 20.9091
44 1 10.4728 -3.23142 20.5125
45 1 9.61685 -3.66558 21.0586
46 1 9.59065 -4.03627 22.0182
47 1 8.67684 -4.40694 21.7033
48 1 8.72311 -4.36948 20.671
49 1 7.6349 -4.02165 20.2389
50 1 8.26704 -3.03609 20.2246
51 2 0.803735 -0.2244 21.811
52 2 0.641659 -1.17866 22.4329
53 2 -0.249215 -0.586183 22.2498
54 2 -0.366443 0.355995 22.9857
55 2 0 0 24
