ITEM: TIMESTEP
0
ITEM: NUMBER OF ATOMS
320
ITEM: BOX BOUNDS mm mm mm
-1.2800000000000000e+02 1.2800000000000000e+02
-1.2800000000000000e+02 1.2800000000000000e+02
-1.2800000000000000e+02 1.2800000000000000e+02
ITEM: ATOMS id type x y z
1 1 -121.6 0 66.2
2 1 -120.65 0 66.2
3 1 -119.7 0 66.2
4 1 -118.75 0 66.2
5 1 -117.8 0 66.2
6 1 -116.85 0 66.2
7 1 -115.9 0 66.2
8 1 -114.95 0 66.2
9 1 -114 0 66.2
10 1 -113.05 0 66.2
11 1 -112.1 0 66.2
12 1 -111.15 0 66.2
13 1 -110.2 0 66.2
14 1 -109.25 0 66.2
15 1 -108.3 0 66.2
16 1 -107.35 0 66.2
17 1 -106.4 0 66.2
18 1 -105.45 0 66.2
19 1 -104.5 0 66.2
20 1 -103.55 0 66.2
21 1 -102.6 0 66.2
22 1 -101.65 0 66.2
23 1 -100.7 0 66.2
24 1 -99.75 0 66.2
25 1 -98.8 0 66.2
26 1 -97.85 0 66.2
27 1 -96.9 0 66.2
28 1 -95.95 0 66.2
29 1 -95 0 66.2
30 1 -94.05 0 66.2
31 1 -93.1 0 66.2
32 1 -92.15 0 66.2
33 1 -91.2 0 66.2
34 1 -90.25 0 66.2
35 1 -89.3 0 66.2
36 1 -88.35 0 66.2
37 1 -87.4 0 66.2
38 1 -86.45 0 66.2
39 1 -85.5 0 66.2
40 1 -84.55 0 66.2
41 1 -83.6 0 66.2
42 1 -82.65 0 66.2
43 1 -81.7 0 66.2
44 1 -80.75 0 66.2
45 1 -79.8 0 66.2
46 1 -78.85 0 66.2
47 1 -77.9 0 66.2
48 1 -76.95 0 66.2
49 1 -76 0 66.2
50 1 -75.05 0 66.2
51 1 -74.1 0 66.2
52 1 -73.15 0 66.2
53 1 -72.2 0 66.2
54 1 -71.25 0 66.2
55 1 -70.3 0 66.2
56 1 -69.35 0 66.2
57 1 -68.4 0 66.2
58 1 -67.45 0 66.2
59 1 -66.5 0 66.2
60 1 -65.55 0 66.2
61 1 -64.6 0 66.2
62 1 -63.65 0 66.2
63 1 -62.7 0 66.2
64 1 -61.75 0 66.2
65 1 -60.8 0 66.2
66 1 -59.85 0 66.2
67 1 -58.9 0 66.2
68 1 -57.95 0 66.2
69 1 -57 0 66.2
70 1 -56.05 0 66.2
71 1 -55.1 0 66.2
72 1 -54.15 0 66.2
73 1 -53.2 0 66.2
74 1 -52.25 0 66.2
75 1 -51.3 0 66.2
76 1 -50.35 0 66.2
77 1 -49.4 0 66.2
78 1 -48.45 0 66.2
79 1 -47.5 0 66.2
80 1 -46.55 0 66.2
81 1 -45.6 0 66.2
82 1 -44.65 0 66.2
83 1 -43.7 0 66.2
84 1 -42.75 0 66.2
85 1 -41.8 0 66.2
86 1 -40.85 0 66.2
87 1 -39.9 0 66.2
88 1 -38.95 0 66.2
89 1 -38 0 66.2
90 1 -37.05 0 66.2
91 1 -36.1 0 66.2
92 1 -35.15 0 66.2
93 1 -34.2 0 66.2
94 1 -33.25 0 66.2
95 1 -32.3 0 66.2
96 1 -31.35 0 66.2
97 1 -30.4 0 66.2
98 1 -29.45 0 66.2
99 1 -28.5 0 66.2
100 1 -27.55 0 66.2
101 1 -26.6 0 66.2
102 1 -25.65 0 66.2
103 1 -24.7 0 66.2
104 1 -23.75 0 66.2
105 1 -22.8 0 66.2
106 1 -21.85 0 66.2
107 1 -20.9 0 66.2
108 1 -19.95 0 66.2
109 1 -19 0 66.2
110 1 -18.05 0 66.2
111 1 -17.1 0 66.2
112 1 -16.15 0 66.2
113 1 -15.2 0 66.2
114 1 -14.25 0 66.2
115 1 -13.3 0 66.2
116 1 -12.35 0 66.2
117 1 -11.4 0 66.2
118 1 -10.45 0 66.2
119 1 -9.5 0 66.2
120 1 -8.55 0 66.2
121 1 -7.6 0 66.2
122 1 -6.65 0 66.2
123 1 -5.7 0 66.2
124 1 -4.75 0 66.2
125 1 -3.8 0 66.2
126 1 -2.85 0 66.2
127 1 -1.9 0 66.2
128 1 -0.95 0 66.2
129 1 0 0 66.2
130 1 0.95 0 66.2
131 1 1.9 0 66.2
132 1 2.85 0 66.2
133 1 3.8 0 66.2
134 1 4.75 0 66.2
135 1 5.7 0 66.2
136 1 6.65 0 66.2
137 1 7.6 0 66.2
138 1 8.55 0 66.2
139 1 9.5 0 66.2
140 1 10.45 0 66.2
141 1 11.4 0 66.2
142 1 12.35 0 66.2
143 1 13.3 0 66.2
144 1 14.25 0 66.2
145 1 15.2 0 66.2
146 1 16.15 0 66.2
147 1 17.1 0 66.2
148 1 18.05 0 66.2
149 1 19 0 66.2
150 1 19.95 0 66.2
151 1 20.9 0 66.2
152 1 21.85 0 66.2
153 1 22.8 0 66.2
154 1 23.75 0 66.2
155 1 24.7 0 66.2
156 1 25.65 0 66.2
157 1 26.6 0 66.2
158 1 27.55 0 66.2
159 1 28.5 0 66.2
160 1 29.45 0 66.2
161 1 30.4 0 66.2
162 1 31.35 0 66.2
163 1 32.3 0 66.2
164 1 33.25 0 66.2
165 1 34.2 0 66.2
166 1 35.15 0 66.2
167 1 36.1 0 66.2
168 1 37.05 0 66.2
169 1 38 0 66.2
170 1 38.95 0 66.2
171 1 39.9 0 66.2
172 1 40.85 0 66.2
173 1 41.8 0 66.2
174 1 42.75 0 66.2
175 1 43.7 0 66.2
176 1 44.65 0 66.2
177 1 45.6 0 66.2
178 1 46.55 0 66.2
179 1 47.5 0 66.2
180 1 48.45 0 66.2
181 1 49.4 0 66.2
182 1 50.35 0 66.2
183 1 51.3 0 66.2
184 1 52.25 0 66.2
185 1 53.2 0 66.2
186 1 54.15 0 66.2
187 1 55.1 0 66.2
188 1 56.05 0 66.2
189 1 57 0 66.2
190 1 57.95 0 66.2
191 1 58.9 0 66.2
192 1 59.85 0 66.2
193 1 60.8 0 66.2
194 1 61.75 0 66.2
195 1 62.7 0 66.2
196 1 63.65 0 66.2
197 1 64.6 0 66.2
198 1 65.55 0 66.2
199 1 66.5 0 66.2
200 1 67.45 0 66.2
201 1 68.4 0 66.2
202 1 69.35 0 66.2
203 1 70.3 0 66.2
204 1 71.25 0 66.2
205 1 72.2 0 66.2
206 1 73.15 0 66.2
207 1 74.1 0 66.2
208 1 75.05 0 66.2
209 1 76 0 66.2
210 1 76.95 0 66.2
211 1 77.9 0 66.2
212 1 78.85 0 66.2
213 1 79.8 0 66.2
214 1 80.75 0 66.2
215 1 81.7 0 66.2
216 1 82.65 0 66.2
217 1 83.6 0 66.2
218 1 84.55 0 66.2
219 1 85.5 0 66.2
220 1 86.45 0 66.2
221 1 87.4 0 66.2
222 1 88.35 0 66.2
223 1 89.3 0 66.2
224 1 90.25 0 66.2
225 1 91.2 0 66.2
226 1 92.15 0 66.2
227 1 93.1 0 66.2
228 1 94.05 0 66.2
229 1 95 0 66.2
230 1 95.95 0 66.2
231 1 96.9 0 66.2
232 1 97.85 0 66.2
233 1 98.8 0 66.2
234 1 99.75 0 66.2
235 1 100.7 0 66.2
236 1 101.65 0 66.2
237 1 102.6 0 66.2
238 1 103.55 0 66.2
239 1 104.5 0 66.2
240 1 105.45 0 66.2
241 1 106.4 0 66.2
242 1 107.35 0 66.2
243 1 108.3 0 66.2
244 1 109.25 0 66.2
245 1 110.2 0 66.2
246 1 111.15 0 66.2
247 1 112.1 0 66.2
248 1 113.05 0 66.2
249 1 114 0 66.2
250 1 114.95 0 66.2
251 1 115.9 0 66.2
252 1 116.85 0 66.2
253 1 117.8 0 66.2
254 1 118.75 0 66.2
255 1 119.7 0 66.2
256 1 120.65 0 66.2
257 2 0 0 67.15
258 2 0 0 68.1
259 2 0 0 69.05
260 2 0 0 70
261 2 0 0 70.95
262 2 0 0 71.9
263 2 0 0 72.85
264 2 0 0 73.8
265 2 0 0 74.75
266 2 0 0 75.7
267 2 0 0 76.65
268 2 0 0 77.6
269 2 0 0 78.55
270 2 0 0 79.5
271 2 0 0 80.45
272 2 0 0 81.4
273 2 0 0 82.35
274 2 0 0 83.3
275 2 0 0 84.25
276 2 0 0 85.2
277 2 0 0 86.15
278 2 0 0 87.1
279 2 0 0 88.05
280 2 0 0 89
281 2 0 0 89.95
282 2 0 0 90.9
283 2 0 0 91.85
284 2 0 0 92.8
285 2 0 0 93.75
286 2 0 0 94.7
287 2 0 0 95.65
288 2 0 0 96.6
289 2 0 0 97.55
290 2 0 0 98.5
291 2 0 0 99.45
292 2 0 0 100.4
293 2 0 0 101.35
294 2 0 0 102.3
295 2 0 0 103.25
296 2 0 0 104.2
297 2 0 0 105.15
298 2 0 0 106.1
299 2 0 0 107.05
300 2 0 0 108
301 2 0 0 108.95
302 2 0 0 109.9
303 2 0 0 110.85
304 2 0 0 111.8
305 2 0 0 112.75
306 2 0 0 113.7
307 2 0 0 114.65
308 2 0 0 115.6
309 2 0 0 116.55
310 2 0 0 117.5
311 2 0 0 118.45
312 2 0 0 119.4
313 2 0 0 120.35
314 2 0 0 121.3
315 2 0 0 122.25
316 2 0 0 123.2
317 2 0 0 124.15
318 2 0 0 125.1
319 2 0 0 126.05
320 2 0 0 127
ITEM: TIMESTEP
10000
ITEM: NUMBER OF ATOMS
320
ITEM: BOX BOUNDS mm mm mm
-1.2800000000000000e+02 1.2800000000000000e+02
-1.2800000000000000e+02 1.2800000000000000e+02
-1.2800000000000000e+02 1.2800000000000000e+02
ITEM: ATOMS id type x y z
1 1 -96.4471 -0.630976 68.9584
2 1 -97.0914 -0.105838 69.4474
3 1 -96.6147 0.457209 70.0248
4 1 -96.3763 1.31796 70.3396
5 1 -96.0389 2.19299 70.56
6 1 -95.6724 3.03822 70.4429
7 1 -95.7588 3.92461 70.5747
8 1 -95.589 4.66849 70.0246
9 1 -94.8644 4.65832 69.4536
10 1 -94.4243 4.58594 68.6331
11 1 -94.0416 3.93572 68.0322
12 1 -94.4037 3.18318 67.5336
13 1 -94.0413 2.56907 66.9348
14 1 -93.296 2.29158 66.4557
15 1 -92.6075 1.95308 65.8851
16 1 -92.1388 2.0246 65.0671
17 1 -91.5186 1.95058 64.3631
18 1 -90.7077 1.53158 64.4891
19 1 -89.9136 1.02467 64.4439
20 1 -89.6542 0.190857 64.6466
21 1 -89.5229 -0.0233439 65.5926
22 1 -88.7823 -0.40541 66.0167
23 1 -87.9386 -0.819132 66.0603
24 1 -87.2958 -1.0954 66.6292
25 1 -86.5487 -1.77444 66.6769
26 1 -85.6536 -1.42743 66.6135
27 1 -84.7436 -1.2777 66.7165
28 1 -83.795 -1.06605 66.6882
29 1 -82.8816 -0.810661 66.5394
30 1 -82.1297 -1.28993 66.1859
31 1 -81.2709 -1.51237 65.8423
32 1 -80.3888 -1.45655 65.5329
33 1 -79.5657 -1.00783 65.6803
34 1 -78.7724 -0.550614 65.4967
35 1 -77.953 -0.788295 65.1456
36 1 -77.0717 -0.676029 64.7612
37 1 -76.1752 -0.594944 64.5248
38 1 -75.3005 -1.03057 64.4212
39 1 -74.4817 -0.866036 63.9531
40 1 -73.5516 -0.754034 63.7725
41 1 -72.6656 -0.653359 63.6372
42 1 -71.925 -0.133686 63.3466
43 1 -71.0577 0.0741278 63.0651
44 1 -70.1572 -0.0389147 63.0828
45 1 -69.5109 -0.620734 62.6642
46 1 -68.6726 -0.580743 62.9779
47 1 -67.8022 -0.406056 63.1927
48 1 -66.9501 -0.0740054 63.6251
49 1 -66.2485 -0.0713278 64.3654
50 1 -65.4658 0.102298 64.8705
51 1 -64.565 0.261422 65.0158
52 1 -63.7006 0.235117 65.3396
53 1 -62.8464 0.43265 65.5891
54 1 -61.9777 0.703097 65.9781
55 1 -61.0796 0.571434 66.1682
56 1 -60.4531 -0.0789631 66.1337
57 1 -59.4799 -0.0267739 66.0794
58 1 -58.5544 -0.137806 65.9439
59 1 -57.7608 0.136568 66.3388
60 1 -56.8546 -0.0957655 66.585
61 1 -56.0986 -0.599194 66.6256
62 1 -55.1334 -0.757526 66.7635
63 1 -54.3579 -0.798553 66.3119
64 1 -53.4177 -0.886286 66.3388
65 1 -52.5099 -0.840013 66.2184
66 1 -51.6239 -0.789554 65.9055
67 1 -50.7364 -1.17923 65.842
68 1 -49.9296 -1.29604 66.3448
69 1 -49.12 -1.73805 66.6524
70 1 -48.1754 -1.73963 66.4351
71 1 -47.221 -1.96226 66.4295
72 1 -46.5076 -2.16476 67.0164
73 1 -45.7076 -2.37385 67.3923
74 1 -44.8976 -2.66421 67.0415
75 1 -43.9767 -2.70781 67.0131
76 1 -43.0664 -2.81913 66.7187
77 1 -42.33 -3.44604 66.7237
78 1 -41.4164 -3.46607 66.632
79 1 -40.6804 -2.93538 66.8787
80 1 -39.9741 -2.31285 66.7763
81 1 -39.194 -1.7754 66.6585
82 1 -38.4427 -1.21847 66.5193
83 1 -37.5761 -0.970662 66.4905
84 1 -36.6839 -0.706761 66.6405
85 1 -35.7416 -0.49523 66.6419
86 1 -34.8192 -0.487828 66.8227
87 1 -33.9057 -0.322053 67.1048
88 1 -33.0967 -0.638595 67.3271
89 1 -32.2805 -0.678895 67.7684
90 1 -31.4129 -1.07066 68.1284
91 1 -30.5775 -1.35678 68.3915
92 1 -29.7766 -1.68537 68.845
93 1 -29.1006 -2.10234 69.362
94 1 -28.2554 -2.22007 69.7464
95 1 -27.3741 -2.25743 69.761
96 1 -26.4654 -2.09404 69.9659
97 1 -25.6371 -1.80895 70.2704
98 1 -24.9199 -1.99584 70.8842
99 1 -24.2697 -1.80297 71.5482
100 1 -23.6074 -1.5936 72.1949
101 1 -22.6699 -1.64598 72.1028
102 1 -21.736 -1.654 71.9745
103 1 -20.8724 -1.57948 71.933
104 1 -19.9624 -1.84176 72.0538
105 1 -19.0156 -1.61174 71.9733
106 1 -18.2266 -1.74501 72.4665
107 1 -17.2828 -1.43578 72.4921
108 1 -16.4312 -1.53513 72.921
109 1 -15.5577 -1.38717 73.2065
110 1 -14.5912 -1.43586 73.1675
111 1 -13.8411 -0.999009 73.4289
112 1 -13.1417 -0.367589 73.6493
113 1 -12.2039 -0.456027 73.3689
114 1 -11.2806 -0.236429 73.3666
115 1 -10.557 0.103076 73.8854
116 1 -9.89229 0.771987 73.8107
117 1 -8.95343 0.81251 73.7157
118 1 -7.9663 0.722232 73.904
119 1 -7.31566 0.425094 74.4505
120 1 -6.46998 0.265577 74.835
121 1 -5.7322 0.518331 75.5022
122 1 -4.86326 0.880349 75.604
123 1 -3.93889 0.896859 75.7275
124 1 -3.33509 0.263759 76.0841
125 1 -2.60335 -0.258724 76.1939
126 1 -1.70245 -0.329097 76.3407
127 1 -0.846151 -0.683778 76.5867
128 1 -0.0480259 -0.730133 77.131
129 1 0.656534 -0.3807 77.6208
130 1 1.38557 0.154096 77.302
131 1 1.90119 0.191284 76.5623
132 1 2.79249 0.0733874 76.2231
133 1 3.70692 -0.162512 76.3427
134 1 4.45173 -0.526969 75.8719
135 1 5.32828 -0.393212 75.6029
136 1 6.26139 -0.337187 75.4133
137 1 7.13475 -0.145544 75.0172
138 1 7.79269 0.00597194 74.3133
139 1 8.69916 -0.122858 74.1873
140 1 9.53705 -0.252266 73.7697
141 1 10.442 -0.254452 73.3643
142 1 11.285 -0.104864 73.0404
143 1 11.9903 0.162705 72.4244
144 1 12.5571 0.577093 71.8225
145 1 13.3138 1.13325 71.723
146 1 14.0796 1.13474 71.1209
147 1 14.9213 1.27925 70.7504
148 1 15.4458 1.68821 70.0925
149 1 16.3656 1.94261 69.9235
150 1 17.041 1.76604 69.2872
151 1 17.9198 1.54289 69.0965
152 1 18.834 1.35861 69.2569
153 1 19.7493 1.42763 69.3767
154 1 20.6823 1.23815 69.2819
155 1 21.6243 1.12554 69.4474
156 1 22.5355 1.08133 69.5893
157 1 23.381 1.50737 69.68
158 1 24.3072 1.42401 69.7923
159 1 25.2317 1.73469 69.7348
160 1 26.1257 2.10102 70.0272
161 1 26.9236 2.25477 69.6439
162 1 27.7482 2.11644 69.1659
163 1 28.6986 2.20908 68.8693
164 1 29.6549 2.30555 68.5949
165 1 30.664 2.25959 68.4916
166 1 31.5283 2.08128 68.5796
167 1 32.4121 1.8947 68.2825
168 1 33.3359 1.62169 68.2216
169 1 34.019 2.01196 67.7694
170 1 34.9952 2.12973 67.6826
171 1 35.7903 2.60109 67.5093
172 1 36.5852 3.07912 67.3282
173 1 37.3651 3.62549 67.2917
174 1 38.2758 3.89052 67.3154
175 1 39.1348 3.57643 67.388
176 1 40.0771 3.49429 67.2782
177 1 40.9732 3.885 67.0637
178 1 41.8733 3.48768 66.9856
179 1 42.7203 3.05138 66.9702
180 1 43.5895 3.27222 66.6986
181 1 44.4178 2.91149 66.3774
182 1 45.0437 2.21574 66.3444
183 1 45.9575 1.80629 66.4848
184 1 46.7769 2.09754 66.2275
185 1 47.5672 2.2816 65.696
186 1 48.2454 1.80216 65.2129
187 1 49.0404 1.5016 64.8742
188 1 50.0153 1.40392 64.9846
189 1 50.9185 1.38118 65.0643
190 1 51.8517 1.35032 65.2308
191 1 52.6787 0.886135 65.1822
192 1 53.4469 0.513126 64.8204
193 1 54.332 0.708901 65.2601
194 1 55.1119 0.80845 65.6988
195 1 55.9472 1.36966 65.8324
196 1 56.7849 1.70341 65.6991
197 1 57.6783 1.95792 65.741
198 1 58.5653 2.0378 66.0148
199 1 59.3192 1.54123 65.6619
200 1 60.2284 1.41657 65.4823
201 1 61.1337 1.55451 65.7157
202 1 62.0998 1.49062 65.8682
203 1 62.977 1.73155 66.1115
204 1 63.9169 1.80817 66.4206
205 1 64.8353 1.53492 66.436
206 1 65.7644 1.45844 66.6256
207 1 66.5151 2.0173 66.6635
208 1 67.1296 2.39165 66.0718
209 1 68.0494 2.63278 65.8373
210 1 68.9771 2.8135 65.6121
211 1 69.8203 2.64147 65.3095
212 1 70.6073 2.63591 64.8214
213 1 71.4388 2.40663 64.4186
214 1 72.2384 2.05631 64.8118
215 1 73.1514 2.081 65.0289
216 1 74.0615 1.88067 65.138
217 1 74.945 1.51081 65.2959
218 1 75.9109 1.4213 65.3999
219 1 76.8295 1.638 65.6443
220 1 77.6446 2.17739 65.8465
221 1 78.4064 2.75637 65.562
222 1 79.3245 2.97846 65.4631
223 1 80.1991 2.86118 65.6737
224 1 81.0233 2.55741 65.3182
225 1 81.8856 2.74056 65.6843
226 1 82.7226 2.60258 65.9357
227 1 83.5814 2.26266 65.7817
228 1 84.5459 2.23157 65.726
229 1 85.2742 1.73838 65.9869
230 1 85.8048 0.956636 65.7492
231 1 86.5135 0.456594 65.3812
232 1 87.0862 0.0613774 64.8059
233 1 87.4556 0.0161956 63.989
234 1 88.0523 0.553251 63.477
235 1 88.4898 1.37762 63.2991
236 1 89.0958 1.04429 62.5531
237 1 89.8117 1.0456 61.9157
238 1 90.7732 1.05345 61.843
239 1 91.332 1.30364 61.1093
240 1 91.8899 1.98126 60.7486
241 1 92.7748 2.20228 60.8632
242 1 93.4993 2.74347 61.049
243 1 94.1209 2.93468 61.6687
244 1 94.6698 3.53346 62.2525
245 1 94.6072 4.04544 63.1378
246 1 94.6716 3.8718 64.0366
247 1 95.0949 3.44086 64.7494
248 1 95.4403 3.60327 65.5941
249 1 95.9482 3.29403 66.3545
250 1 96.5095 2.89586 66.9782
251 1 97.1417 2.84776 67.6388
252 1 96.9044 2.48182 68.5267
253 1 96.1146 2.26048 68.9796
254 1 95.849 2.47341 69.857
255 1 95.3285 2.11843 70.5171
256 1 94.5477 2.26046 71.064
257 2 0.397554 -1.10546 78.2556
258 2 0.676299 -0.636233 79.1154
259 2 0.114591 -0.126079 79.6388
260 2 -0.201722 0.110174 80.5486
261 2 -0.782532 0.663895 80.9716
262 2 -1.08293 0.983334 81.7625
263 2 -1.79023 0.607538 82.177
264 2 -2.49958 0.0909482 82.4595
265 2 -2.89231 -0.255098 83.2981
266 2 -2.67045 0.325998 83.9545
267 2 -2.42295 0.876514 84.6581
268 2 -2.13614 0.944441 85.5663
269 2 -1.87417 1.74283 86.0012
270 2 -1.68452 1.6482 86.894
271 2 -1.33478 1.92222 87.7458
272 2 -0.862022 2.2033 88.5358
273 2 -1.05568 2.63195 89.385
274 2 -0.509336 2.74133 90.1103
275 2 -0.504454 2.90854 91.0464
276 2 -0.0288128 3.2401 91.7586
277 2 0.440255 3.27432 92.5659
278 2 0.0425589 3.01946 93.3777
279 2 -0.570309 2.93597 94.0842
280 2 -0.694405 2.59052 94.9703
281 2 -0.959327 2.25252 95.828
282 2 -1.45564 1.68026 96.4263
283 2 -2.15264 1.22631 96.8363
284 2 -2.04037 1.42155 97.8059
285 2 -1.64816 1.74548 98.638
286 2 -1.38287 1.40598 99.5163
287 2 -1.73613 1.42624 100.381
288 2 -1.5996 1.26361 101.284
289 2 -1.71172 0.95807 102.175
290 2 -1.2959 0.619632 102.948
291 2 -1.39967 0.275425 103.823
292 2 -2.03158 0.518888 104.533
293 2 -2.23963 1.12589 105.335
294 2 -1.96274 0.816836 106.212
295 2 -1.61704 0.768891 107.086
296 2 -1.38291 0.667801 107.995
297 2 -1.91722 1.03864 108.65
298 2 -2.23013 0.961885 109.594
299 2 -2.42661 0.929463 110.492
300 2 -2.53824 0.673486 111.377
301 2 -2.44373 0.671944 112.302
302 2 -2.9588 0.69272 113.117
303 2 -3.21118 1.20267 113.828
304 2 -2.71757 1.33491 114.57
305 2 -1.9847 1.04026 115.117
306 2 -1.52561 0.703325 115.84
307 2 -1.84286 0.706441 116.799
308 2 -1.24552 0.832442 117.531
309 2 -1.0626 1.08518 118.381
310 2 -0.936232 0.543037 119.121
311 2 -0.784912 0.996597 119.944
312 2 -0.69627 0.400532 120.682
313 2 -0.334333 0.43258 121.64
314 2 0.445458 0.462545 122.145
315 2 0.84566 1.15312 122.647
316 2 0.683347 0.930353 123.5
317 2 0.642453 0.530686 124.364
318 2 0.273131 0.109545 125.118
319 2 -0.0178644 0.103395 126.029
320 2 0 0 127
ITEM: TIMESTEP
20000
ITEM: NUMBER OF ATOMS
320
ITEM: BOX BOUNDS mm mm mm
-1.2800000000000000e+02 1.2800000000000000e+02
-1.2800000000000000e+02 1.2800000000000000e+02
-1.2800000000000000e+02 1.2800000000000000e+02
ITEM: ATOMS id type x y z
1 1 -89.3321 -2.4731 71.506
2 1 -90.0344 -2.62433 70.8943
3 1 -90.8388 -2.80723 70.3457
4 1 -91.4164 -2.14236 70.0831
5 1 -91.667 -1.46536 69.4502
6 1 -91.8308 -1.60289 68.5478
7 1 -91.1834 -1.52325 67.8372
8 1 -90.3839 -1.48918 67.3332
9 1 -89.5232 -1.21192 67.0598
10 1 -88.9234 -0.747411 66.4592
11 1 -88.3085 -0.367336 65.8863
12 1 -87.9226 0.261234 65.3489
13 1 -87.0793 0.261785 64.8988
14 1 -86.1646 0.448867 64.6509
15 1 -85.232 0.713166 64.5527
16 1 -84.4734 1.22561 64.7923
17 1 -83.6677 1.64143 64.524
18 1 -82.9818 1.63821 63.9065
19 1 -82.0879 1.48209 63.8038
20 1 -81.1893 1.84533 63.7207
21 1 -80.3729 1.6923 63.3124
22 1 -79.4424 1.6946 63.0499
23 1 -78.6151 2.16419 63.1019
24 1 -77.8267 2.50648 62.6992
25 1 -77.3165 3.28869 62.4755
26 1 -76.546 3.82697 62.3985
27 1 -75.9545 4.19318 61.7427
28 1 -75.4955 3.73727 61.0811
29 1 -74.6638 3.55683 60.762
30 1 -73.7363 3.71105 60.9085
31 1 -73.0265 3.22622 60.4946
32 1 -72.4294 2.52109 60.3605
33 1 -71.6943 1.88783 60.4514
34 1 -71.768 1.56625 61.3106
35 1 -71.6077 1.11391 62.0758
36 1 -71.1949 1.22934 62.9125
37 1 -70.7438 1.7099 62.217
38 1 -69.8842 1.69841 61.7899
39 1 -69.2421 1.6618 61.1581
40 1 -68.7228 2.26321 60.6505
41 1 -67.8908 2.69946 60.8527
42 1 -67.4578 3.0908 61.5469
43 1 -66.5126 3.09651 61.8358
44 1 -65.7159 3.56477 61.9352
45 1 -64.8186 3.76209 62.3513
46 1 -64.0227 4.25208 62.1911
47 1 -63.0774 4.28236 62.3134
48 1 -62.3875 4.50402 62.9027
49 1 -61.562 4.35776 63.3201
50 1 -60.7543 4.72609 63.534
51 1 -59.9836 4.80857 64.033
52 1 -59.1564 4.584 64.312
53 1 -58.7583 3.67837 64.2368
54 1 -58.0424 3.11653 64.5922
55 1 -57.3477 2.50323 64.7235
56 1 -56.527 2.0948 64.8582
57 1 -55.8888 1.36905 64.8545
58 1 -55.1101 0.751178 64.8469
59 1 -54.2225 0.308829 64.8632
60 1 -53.4201 0.33616 65.3125
61 1 -52.5699 -0.00195443 65.3228
62 1 -51.6678 0.0236721 65.1592
63 1 -50.757 -0.110704 64.9815
64 1 -49.982 0.0549302 65.5201
65 1 -49.5472 0.647483 66.0443
66 1 -48.7196 1.005 66.2507
67 1 -48.055 0.960994 66.9488
68 1 -47.3041 0.839209 67.5092
69 1 -46.3997 0.870419 67.6169
70 1 -45.5045 0.842525 67.9672
71 1 -44.7573 0.268557 67.7805
72 1 -43.9088 0.45294 68.0928
73 1 -43.0045 0.525308 68.3143
74 1 -42.458 0.669392 69.1103
75 1 -41.5394 0.521763 69.2949
76 1 -40.6476 0.068654 69.4237
77 1 -39.697 0.2028 69.2484
78 1 -39.391 -0.393446 68.603
79 1 -38.8173 -0.454658 67.8312
80 1 -37.9661 -0.455698 67.4209
81 1 -37.1146 -0.122672 67.0557
82 1 -36.3578 -0.0765349 67.5817
83 1 -35.6012 0.162439 68.1333
84 1 -34.8491 0.421528 68.6706
85 1 -34.3585 0.555575 69.4439
86 1 -33.6368 1.06443 69.8133
87 1 -33.0288 1.76906 70.0039
88 1 -32.1658 2.06453 70.0796
89 1 -31.5176 2.61489 70.4639
90 1 -31.0717 2.32242 71.1869
91 1 -30.6884 2.0541 71.996
92 1 -29.9268 2.39339 72.4707
93 1 -29.2015 1.82209 72.6398
94 1 -28.3552 1.9096 72.1572
95 1 -27.4746 1.60487 71.9546
96 1 -26.6219 1.75516 72.3252
97 1 -25.8103 1.53089 72.7655
98 1 -24.9545 1.17349 72.716
99 1 -24.1979 0.648504 72.9217
100 1 -23.5075 0.790627 73.5418
101 1 -22.622 0.727595 73.8509
102 1 -21.9562 0.877246 74.5676
103 1 -21.3307 0.335636 75.0005
104 1 -20.5916 0.065791 75.4816
105 1 -19.7081 -0.27695 75.814
106 1 -18.7964 -0.433879 75.9993
107 1 -17.9849 -0.906518 76.1378
108 1 -17.4047 -1.64589 76.1722
109 1 -16.5161 -1.68139 76.4084
110 1 -15.5697 -1.68182 76.6744
111 1 -14.9525 -1.69583 77.4475
112 1 -14.1289 -1.56768 77.7693
113 1 -13.2369 -1.46351 78.1711
114 1 -12.4645 -0.955302 78.1077
115 1 -11.6147 -0.933061 78.5793
116 1 -10.7215 -0.907981 78.8904
117 1 -9.82634 -1.00106 78.8652
118 1 -9.05791 -1.46087 79.1397
119 1 -8.21163 -1.74806 78.8508
120 1 -7.48814 -1.18046 78.9969
121 1 -6.53772 -1.00193 78.9374
122 1 -5.71868 -0.698937 78.5182
123 1 -4.84669 -0.447773 78.399
124 1 -4.13846 -0.517385 79.0086
125 1 -3.44815 -0.631745 79.6414
126 1 -2.98842 -0.193953 80.35
127 1 -2.02891 -0.189248 80.3135
128 1 -1.17669 -0.027194 80.7331
129 1 -0.573204 0.441695 81.2347
130 1 -0.372763 1.31955 80.9404
131 1 0.379914 1.34791 80.4049
132 1 1.34414 1.3763 80.2005
133 1 2.28896 1.35623 79.9844
134 1 3.10317 1.73894 79.8056
135 1 3.91837 1.97366 79.3693
136 1 4.67429 1.75567 78.9204
137 1 5.33884 1.19052 78.5107
138 1 6.19811 1.09629 78.1138
139 1 7.06328 0.797345 77.6903
140 1 7.95348 1.09129 77.5373
141 1 8.87554 0.899623 77.3749
142 1 9.69209 1.29263 77.1284
143 1 10.4981 1.02816 76.7233
144 1 11.3531 0.738822 76.8801
145 1 12.0299 0.621073 76.2807
146 1 12.6672 0.275766 75.6393
147 1 13.5182 -0.0162867 75.5645
148 1 14.045 -0.813514 75.4523
149 1 14.8594 -1.2664 75.1418
150 1 15.7995 -1.40886 74.9593
151 1 16.3945 -1.58527 74.2554
152 1 17.3383 -1.59803 74.0676
153 1 18.188 -1.0854 74.0772
154 1 18.886 -0.551634 74.0449
155 1 19.6136 -0.361368 73.4557
156 1 20.498 -0.685948 73.0883
157 1 21.3782 -0.557045 72.8467
158 1 22.1624 -0.325697 72.4456
159 1 22.9382 0.195523 72.5282
160 1 23.3997 0.427903 71.7419
161 1 24.0704 0.78905 71.1412
162 1 24.7196 1.36182 70.7491
163 1 25.5597 1.72877 70.7644
164 1 26.4317 2.09961 70.802
165 1 27.3882 2.19115 70.6226
166 1 28.2273 2.57099 70.3791
167 1 29.263 2.51373 70.3026
168 1 30.197 2.57533 70.3033
169 1 31.1725 2.63968 70.2119
170 1 32.0763 2.83905 70.1509
171 1 32.7917 2.98271 70.6838
172 1 33.7475 3.35861 70.889
173 1 34.6112 2.94671 70.9474
174 1 35.4757 2.83572 70.5878
175 1 36.3602 2.74689 70.1485
176 1 37.1499 2.67942 69.6526
177 1 38.1074 2.55318 69.468
178 1 38.979 2.12105 69.5159
179 1 39.9179 1.84788 69.3724
180 1 40.8482 2.15549 69.2423
181 1 41.6646 1.91803 69.5465
182 1 42.3213 2.50002 69.2097
183 1 42.9885 2.94109 68.8391
184 1 43.8828 3.0147 69.0849
185 1 44.6709 3.3174 69.4294
186 1 45.5582 3.01488 69.4865
187 1 46.3824 3.07673 69.0165
188 1 47.1985 3.20312 68.4847
189 1 47.9352 3.47471 68.0229
190 1 48.4529 4.18159 68.2991
191 1 49.0312 4.75095 68.7257
192 1 49.4543 5.19237 69.403
193 1 50.3165 5.6268 69.4848
194 1 51.1543 6.10676 69.6582
195 1 51.6772 5.56156 70.1231
196 1 52.4567 5.17549 70.3758
197 1 53.1703 4.63832 70.1416
198 1 53.5894 3.80891 69.9271
199 1 54.5123 3.52265 69.9427
200 1 55.3807 3.03175 70.0162
201 1 56.1422 2.50875 70.0594
202 1 56.9415 2.09672 69.8359
203 1 57.5735 1.48341 69.4961
204 1 57.8643 0.806062 70.1341
205 1 58.6351 0.637893 69.6265
206 1 59.3638 0.571813 69.0622
207 1 60.1456 0.500658 68.5376
208 1 61.0009 0.19649 68.384
209 1 61.893 0.460315 68.3275
210 1 62.8003 0.501277 68.3815
211 1 63.6432 0.968686 68.4019
212 1 64.3308 1.53222 68.0714
213 1 64.716 2.38961 67.8596
214 1 65.5744 2.48417 68.2186
215 1 66.4615 2.75928 68.1666
216 1 67.3522 2.91169 67.8463
217 1 68.161 2.44951 67.5734
218 1 69.0532 2.7024 67.3607
219 1 69.9908 2.69534 67.2638
220 1 70.8346 3.06641 66.899
221 1 71.691 3.15992 66.5924
222 1 72.2641 3.08462 65.7693
223 1 72.8543 3.08463 65.0579
224 1 73.1913 2.63239 64.3424
225 1 74.0148 2.25554 64.0705
226 1 74.7999 1.78381 64.3072
227 1 75.627 1.38627 64.0938
228 1 76.4716 1.35594 64.5291
229 1 77.09 2.03054 64.25
230 1 77.9712 2.36149 64.1254
231 1 78.7984 2.48594 63.7738
232 1 79.4579 2.9554 63.28
233 1 80.3096 2.805 63.0018
234 1 80.8231 2.12989 62.5829
235 1 81.5112 1.47005 62.9776
236 1 82.4257 1.6275 63.2519
237 1 83.3507 1.6039 63.1496
238 1 84.209 1.87093 63.4792
239 1 84.9679 1.71305 64.0839
240 1 85.4073 1.49939 64.8708
241 1 86.1224 1.25636 65.3944
242 1 86.5414 0.488233 65.7967
243 1 87.4691 0.295962 65.956
244 1 87.9266 0.281205 66.7836
245 1 88.6499 0.0359072 67.3348
246 1 89.0233 0.873139 67.7762
247 1 89.5839 1.15524 68.4561
248 1 90.4664 1.41685 68.6351
249 1 91.2103 1.9819 68.5611
250 1 91.7064 2.24809 69.3063
251 1 92.4381 2.67632 69.6423
252 1 93.0368 2.90657 70.3051
253 1 93.4054 3.58782 70.8799
254 1 93.8752 4.37698 70.9968
255 1 94.3231 5.18262 71.1029
256 1 94.941 5.82823 71.4343
257 2 -0.480934 -0.0906817 81.9678
258 2 -0.52265 -0.460861 82.7917
259 2 -0.520723 -0.79287 83.6987
260 2 -0.20986 -0.483384 84.5222
261 2 0.162311 -0.539181 85.3999
262 2 0.378768 -1.31875 85.8167
263 2 1.09416 -1.83348 86.1209
264 2 1.43823 -1.79932 87.0305
265 2 1.46241 -2.04186 87.9255
266 2 1.435 -1.33624 88.5798
267 2 1.35688 -1.63134 89.4143
268 2 1.13973 -2.05491 90.2614
269 2 0.479946 -2.64 90.6326
270 2 0.159234 -2.41297 91.4643
271 2 0.285323 -1.853 92.1975
272 2 0.468525 -1.37172 93.0163
273 2 0.597565 -1.22807 93.9715
274 2 0.0414562 -0.686629 94.5186
275 2 0.390712 -0.0794318 95.1817
276 2 0.846988 -0.842612 95.5687
277 2 1.70036 -0.798633 95.9703
278 2 2.35027 -1.27626 96.4404
279 2 2.17314 -1.7425 97.1994
280 2 2.16296 -1.43456 98.1111
281 2 1.95681 -0.716446 98.7434
282 2 1.65582 -0.541099 99.6415
283 2 1.69393 -0.925401 100.498
284 2 1.16391 -1.27615 101.172
285 2 0.725738 -1.31853 102.049
286 2 0.892617 -1.2748 102.957
287 2 0.791476 -0.988167 103.831
288 2 1.24721 -0.668852 104.662
289 2 1.89505 -1.10369 105.18
290 2 1.25187 -0.982873 105.897
291 2 0.659501 -0.744419 106.548
292 2 0.274782 -0.558174 107.382
293 2 -0.178867 -0.414651 108.181
294 2 0.0916552 0.16188 108.944
295 2 0.0378587 0.638887 109.748
296 2 -0.767778 0.370169 110.104
297 2 -1.21921 0.362797 110.9
298 2 -0.483717 0.13174 111.417
299 2 0.458059 0.188342 111.59
300 2 1.28828 0.0783576 112.045
301 2 2.12879 -0.44442 112.226
302 2 2.33694 -0.36773 113.154
303 2 2.19645 0.267327 113.872
304 2 1.88697 0.645539 114.736
305 2 1.10198 0.409367 115.141
306 2 1.0239 0.436675 116.094
307 2 1.13664 1.15948 116.71
308 2 1.11942 1.25806 117.652
309 2 1.44141 1.85907 118.284
310 2 1.2752 1.66045 119.192
311 2 1.54643 1.84094 120.099
312 2 1.4106 1.84996 121.095
313 2 0.891564 1.11293 121.602
314 2 1.16754 0.679541 122.464
315 2 1.06173 0.870657 123.354
316 2 0.448022 1.28936 123.919
317 2 0.218863 0.958697 124.747
318 2 -0.385628 0.661307 125.365
319 2 -0.035888 0.112826 126.042
320 2 0 0 127
ITEM: TIMESTEP
30000
ITEM: NUMBER OF ATOMS
320
ITEM: BOX BOUNDS mm mm mm
-1.2800000000000000e+02 1.2800000000000000e+02
-1.2800000000000000e+02 1.2800000000000000e+02
-1.2800000000000000e+02 1.2800000000000000e+02
ITEM: ATOMS id type x y z
1 1 -91.9008 3.59217 69.871
2 1 -91.0132 3.80193 69.7309
3 1 -90.2409 3.60422 69.3025
4 1 -89.6674 2.89015 69.6598
5 1 -89.5809 1.99401 69.2589
6 1 -88.6938 1.93544 68.8903
7 1 -87.8411 2.01885 69.227
8 1 -87.1215 2.23267 68.6227
9 1 -86.6354 2.30899 67.8094
10 1 -86.034 2.07774 67.0638
11 1 -85.4281 1.80042 66.4338
12 1 -84.9209 1.74321 65.6607
13 1 -84.575 1.66562 64.8379
14 1 -83.9764 2.15068 64.1813
15 1 -82.992 2.20236 64.375
16 1 -82.3413 1.58603 64.4709
17 1 -81.5597 1.02549 64.6713
18 1 -80.765 0.954292 65.1205
19 1 -79.9725 1.37849 65.4016
20 1 -79.0911 1.14845 65.5637
21 1 -78.3039 0.817383 65.9181
22 1 -77.587 1.13373 66.3905
23 1 -76.7865 0.726103 66.707
24 1 -75.847 0.742974 66.5779
25 1 -74.9964 0.681085 66.1625
26 1 -74.0958 0.410707 66.5444
27 1 -73.4889 1.08394 66.5713
28 1 -72.8721 1.60282 66.1543
29 1 -72.2012 1.54185 66.8211
30 1 -71.5395 1.96577 67.3934
31 1 -70.6862 2.02532 67.8022
32 1 -69.8087 2.22793 68.0005
33 1 -69.0048 2.60291 68.2246
34 1 -68.1012 2.59443 68.0769
35 1 -67.2288 2.93749 67.8754
36 1 -66.4228 2.67142 68.2925
37 1 -65.5807 2.76722 68.6995
38 1 -64.7525 2.86729 69.1579
39 1 -64.2571 2.50426 69.8465
40 1 -63.4271 2.16802 70.2146
41 1 -62.7669 1.52196 69.9331
42 1 -62.0561 0.961981 69.6863
43 1 -61.2175 0.578656 69.5043
44 1 -60.2947 0.476723 69.3502
45 1 -59.8021 0.0881553 68.7364
46 1 -59.9376 -0.469375 67.9533
47 1 -59.2538 -0.884974 67.4745
48 1 -58.5912 -1.41099 67.9714
49 1 -57.8177 -1.83611 67.6814
50 1 -57.0246 -2.30811 67.5743
51 1 -56.2706 -2.48234 66.9101
52 1 -55.7052 -2.29708 66.2006
53 1 -54.9303 -1.93116 65.8056
54 1 -54.0992 -2.46082 65.9677
55 1 -53.1496 -2.67421 65.9103
56 1 -52.2707 -2.78589 65.5848
57 1 -51.4627 -3.2494 65.6708
58 1 -50.7891 -3.54286 65.0955
59 1 -49.8606 -3.28557 65.1301
60 1 -49.1032 -3.43932 65.6007
61 1 -48.1975 -3.54589 65.9227
62 1 -47.293 -3.19252 66.1017
63 1 -46.843 -2.6537 66.6986
64 1 -46.3321 -1.98093 67.1426
65 1 -45.5175 -2.23956 66.819
66 1 -44.6854 -1.93639 67.2829
67 1 -43.9499 -2.19 67.7917
68 1 -43.1378 -2.56853 68.1291
69 1 -42.4022 -2.03169 68.3762
70 1 -41.6622 -1.88993 67.7792
71 1 -40.8155 -1.6761 67.363
72 1 -39.9143 -1.59085 67.0407
73 1 -39.0037 -1.39897 66.8928
74 1 -38.1179 -1.6317 66.8642
75 1 -37.2286 -1.89228 66.8049
76 1 -36.3909 -1.50095 66.9564
77 1 -35.5933 -1.04996 67.213
78 1 -34.7406 -1.034 67.587
79 1 -33.9308 -1.16254 68.0563
80 1 -33.177 -0.987437 68.5357
81 1 -32.5082 -0.663102 69.1527
82 1 -31.963 -0.566221 69.8658
83 1 -31.2289 -0.026899 69.9352
84 1 -30.4939 0.366386 70.3933
85 1 -30.1117 1.0786 70.8919
86 1 -29.8794 1.97822 70.9801
87 1 -29.2868 2.67501 70.8816
88 1 -28.5329 2.91775 70.3782
89 1 -27.8315 3.40158 70.0016
90 1 -26.9071 3.69207 70.0719
91 1 -26.0583 3.4662 70.4246
92 1 -25.147 3.52065 70.3174
93 1 -24.2131 3.5446 70.1299
94 1 -23.283 3.63164 70.1933
95 1 -22.4145 3.12324 70.3325
96 1 -21.5414 2.6918 70.3841
97 1 -20.8088 2.09259 70.4452
98 1 -20.2157 1.68565 71.0635
99 1 -19.5844 1.02522 71.3883
100 1 -18.7782 0.57415 71.6248
101 1 -17.9244 0.217122 71.7837
102 1 -17.1952 -0.197058 72.1831
103 1 -17.0561 -0.492721 73.1047
104 1 -16.6063 -0.764555 73.8601
105 1 -15.8316 -0.204079 74.0774
106 1 -15.6115 0.216953 74.8446
107 1 -15.1527 0.692539 75.5649
108 1 -14.4931 1.28287 75.7572
109 1 -13.8762 1.97699 75.9211
110 1 -12.9292 2.02859 76.0813
111 1 -12.1907 1.76837 76.5381
112 1 -11.5473 1.82821 77.3016
113 1 -10.6362 2.01389 77.3265
114 1 -9.73577 1.7101 77.1137
115 1 -8.90272 1.29805 76.9649
116 1 -7.97289 1.16408 76.9739
117 1 -7.21454 1.61405 77.3182
118 1 -6.34911 1.87654 77.5725
119 1 -5.40382 2.13938 77.7281
120 1 -5.09781 1.66076 78.4752
121 1 -4.61868 1.63866 79.2431